<PP_INFO>
Generated using ld1 code (maybe, or maybe not)                                  
Author: unknown    Generation date: as well                                     
Info: automatically converted from PWSCF format                                 
    1        The Pseudo was generated with a Scalar-Relativistic Calculation
nl pn  l   occ               Rcut            Rcut US             E pseu
*S  0  0  2.00      0.00000000000      0.00000000000      0.00000000000
*P  0  1  6.00      0.00000000000      0.00000000000      0.00000000000
*D  0  2  3.00      0.00000000000      0.00000000000      0.00000000000
</PP_INFO>


<PP_HEADER>
   0                   Version Number
  Mn                   Element
   NC                  Norm - Conserving pseudopotential
    F                  Nonlinear Core Correction
SLA  PZ   NOGX NOGC    PZ   Exchange-Correlation functional   
   15.00000000000      Z valence
    0.00000000000      Total energy
  0.0000000  0.0000000 Suggested cutoff for wfc and rho
    2                  Max angular momentum component
 1159                  Number of points in mesh
    3    2             Number of Wavefunctions, Number of Projectors
 Wavefunctions         nl  l   occ
                       *S  0  2.00
                       *P  1  6.00
                       *D  2  3.00
</PP_HEADER>


<PP_MESH>
  <PP_R>
  3.41995242481E-05  3.46470204866E-05  3.51003721541E-05  3.55596558680E-05
  3.60249492484E-05  3.64963309310E-05  3.69738805803E-05  3.74576789035E-05
  3.79478076635E-05  3.84443496934E-05  3.89473889099E-05  3.94570103278E-05
  3.99733000743E-05  4.04963454037E-05  4.10262347119E-05  4.15630575514E-05
  4.21069046465E-05  4.26578679087E-05  4.32160404522E-05  4.37815166093E-05
  4.43543919470E-05  4.49347632824E-05  4.55227286998E-05  4.61183875667E-05
  4.67218405508E-05  4.73331896373E-05  4.79525381454E-05  4.85799907466E-05
  4.92156534818E-05  4.98596337797E-05  5.05120404743E-05  5.11729838240E-05
  5.18425755297E-05  5.25209287541E-05  5.32081581405E-05  5.39043798322E-05
  5.46097114924E-05  5.53242723239E-05  5.60481830890E-05  5.67815661305E-05
  5.75245453918E-05  5.82772464382E-05  5.90397964779E-05  5.98123243838E-05
  6.05949607148E-05  6.13878377384E-05  6.21910894527E-05  6.30048516092E-05
  6.38292617355E-05  6.46644591590E-05  6.55105850300E-05  6.63677823458E-05
  6.72361959747E-05  6.81159726808E-05  6.90072611485E-05  6.99102120074E-05
  7.08249778587E-05  7.17517132997E-05  7.26905749511E-05  7.36417214826E-05
  7.46053136404E-05  7.55815142737E-05  7.65704883628E-05  7.75724030467E-05
  7.85874276514E-05  7.96157337183E-05  8.06574950338E-05  8.17128876579E-05
  8.27820899545E-05  8.38652826213E-05  8.49626487205E-05  8.60743737095E-05
  8.72006454726E-05  8.83416543523E-05  8.94975931818E-05  9.06686573176E-05
  9.18550446723E-05  9.30569557482E-05  9.42745936711E-05  9.55081642247E-05
  9.67578758853E-05  9.80239398573E-05  9.93065701084E-05  1.00605983406E-04
  1.01922399355E-04  1.03256040431E-04  1.04607132024E-04  1.05975902472E-04
  1.07362583099E-04  1.08767408258E-04  1.10190615368E-04  1.11632444955E-04
  1.13093140690E-04  1.14572949435E-04  1.16072121282E-04  1.17590909593E-04
  1.19129571048E-04  1.20688365683E-04  1.22267556940E-04  1.23867411705E-04
  1.25488200358E-04  1.27130196814E-04  1.28793678577E-04  1.30478926778E-04
  1.32186226228E-04  1.33915865465E-04  1.35668136802E-04  1.37443336377E-04
  1.39241764203E-04  1.41063724219E-04  1.42909524339E-04  1.44779476510E-04
  1.46673896756E-04  1.48593105241E-04  1.50537426313E-04  1.52507188569E-04
  1.54502724903E-04  1.56524372565E-04  1.58572473219E-04  1.60647372998E-04
  1.62749422565E-04  1.64878977172E-04  1.67036396719E-04  1.69222045814E-04
  1.71436293838E-04  1.73679515004E-04  1.75952088421E-04  1.78254398159E-04
  1.80586833316E-04  1.82949788076E-04  1.85343661787E-04  1.87768859017E-04
  1.90225789632E-04  1.92714868858E-04  1.95236517355E-04  1.97791161288E-04
  2.00379232399E-04  2.03001168076E-04  2.05657411435E-04  2.08348411385E-04
  2.11074622712E-04  2.13836506154E-04  2.16634528473E-04  2.19469162544E-04
  2.22340887425E-04  2.25250188446E-04  2.28197557285E-04  2.31183492053E-04
  2.34208497383E-04  2.37273084506E-04  2.40377771344E-04  2.43523082599E-04
  2.46709549833E-04  2.49937711569E-04  2.53208113374E-04  2.56521307951E-04
  2.59877855241E-04  2.63278322507E-04  2.66723284435E-04  2.70213323234E-04
  2.73749028727E-04  2.77330998458E-04  2.80959837788E-04  2.84636159998E-04
  2.88360586398E-04  2.92133746423E-04  2.95956277746E-04  2.99828826385E-04
  3.03752046808E-04  3.07726602051E-04  3.11753163822E-04  3.15832412620E-04
  3.19965037847E-04  3.24151737927E-04  3.28393220422E-04  3.32690202153E-04
  3.37043409320E-04  3.41453577626E-04  3.45921452398E-04  3.50447788720E-04
  3.55033351552E-04  3.59678915865E-04  3.64385266771E-04  3.69153199655E-04
  3.73983520308E-04  3.78877045066E-04  3.83834600946E-04  3.88857025788E-04
  3.93945168392E-04  3.99099888668E-04  4.04322057774E-04  4.09612558271E-04
  4.14972284265E-04  4.20402141562E-04  4.25903047822E-04  4.31475932711E-04
  4.37121738060E-04  4.42841418022E-04  4.48635939239E-04  4.54506280996E-04
  4.60453435397E-04  4.66478407525E-04  4.72582215614E-04  4.78765891222E-04
  4.85030479405E-04  4.91377038893E-04  4.97806642271E-04  5.04320376156E-04
  5.10919341384E-04  5.17604653198E-04  5.24377441430E-04  5.31238850698E-04
  5.38190040595E-04  5.45232185891E-04  5.52366476724E-04  5.59594118805E-04
  5.66916333625E-04  5.74334358655E-04  5.81849447558E-04  5.89462870403E-04
  5.97175913876E-04  6.04989881499E-04  6.12906093853E-04  6.20925888795E-04
  6.29050621690E-04  6.37281665637E-04  6.45620411703E-04  6.54068269155E-04
  6.62626665701E-04  6.71297047731E-04  6.80080880559E-04  6.88979648675E-04
  6.97994855992E-04  7.07128026100E-04  7.16380702528E-04  7.25754449000E-04
  7.35250849701E-04  7.44871509545E-04  7.54618054448E-04  7.64492131598E-04
  7.74495409737E-04  7.84629579445E-04  7.94896353418E-04  8.05297466767E-04
  8.15834677305E-04  8.26509765845E-04  8.37324536503E-04  8.48280817000E-04
  8.59380458975E-04  8.70625338292E-04  8.82017355363E-04  8.93558435467E-04
  9.05250529074E-04  9.17095612174E-04  9.29095686616E-04  9.41252780440E-04
  9.53568948224E-04  9.66046271430E-04  9.78686858755E-04  9.91492846488E-04
  1.00446639887E-03  1.01760970847E-03  1.03092499653E-03  1.04441451337E-03
  1.05808053874E-03  1.07192538225E-03  1.08595138369E-03  1.10016091351E-03
  1.11455637314E-03  1.12914019544E-03  1.14391484513E-03  1.15888281915E-03
  1.17404664713E-03  1.18940889178E-03  1.20497214936E-03  1.22073905011E-03
  1.23671225866E-03  1.25289447453E-03  1.26928843254E-03  1.28589690332E-03
  1.30272269374E-03  1.31976864740E-03  1.33703764509E-03  1.35453260534E-03
  1.37225648481E-03  1.39021227890E-03  1.40840302217E-03  1.42683178890E-03
  1.44550169361E-03  1.46441589154E-03  1.48357757924E-03  1.50298999508E-03
  1.52265641981E-03  1.54258017709E-03  1.56276463410E-03  1.58321320206E-03
  1.60392933681E-03  1.62491653943E-03  1.64617835682E-03  1.66771838227E-03
  1.68954025610E-03  1.71164766625E-03  1.73404434893E-03  1.75673408923E-03
  1.77972072177E-03  1.80300813135E-03  1.82660025360E-03  1.85050107564E-03
  1.87471463676E-03  1.89924502912E-03  1.92409639841E-03  1.94927294457E-03
  1.97477892250E-03  2.00061864277E-03  2.02679647235E-03  2.05331683535E-03
  2.08018421379E-03  2.10740314831E-03  2.13497823898E-03  2.16291414605E-03
  2.19121559077E-03  2.21988735613E-03  2.24893428774E-03  2.27836129459E-03
  2.30817334993E-03  2.33837549206E-03  2.36897282521E-03  2.39997052041E-03
  2.43137381633E-03  2.46318802022E-03  2.49541850875E-03  2.52807072894E-03
  2.56115019911E-03  2.59466250975E-03  2.62861332453E-03  2.66300838123E-03
  2.69785349267E-03  2.73315454778E-03  2.76891751251E-03  2.80514843089E-03
  2.84185342604E-03  2.87903870117E-03  2.91671054070E-03  2.95487531125E-03
  2.99353946276E-03  3.03270952957E-03  3.07239213151E-03  3.11259397502E-03
  3.15332185433E-03  3.19458265254E-03  3.23638334282E-03  3.27873098958E-03
  3.32163274969E-03  3.36509587364E-03  3.40912770680E-03  3.45373569065E-03
  3.49892736406E-03  3.54471036452E-03  3.59109242947E-03  3.63808139759E-03
  3.68568521012E-03  3.73391191222E-03  3.78276965433E-03  3.83226669351E-03
  3.88241139488E-03  3.93321223302E-03  3.98467779339E-03  4.03681677378E-03
  4.08963798582E-03  4.14315035642E-03  4.19736292928E-03  4.25228486647E-03
  4.30792544993E-03  4.36429408304E-03  4.42140029223E-03  4.47925372860E-03
  4.53786416951E-03  4.59724152027E-03  4.65739581578E-03  4.71833722227E-03
  4.78007603898E-03  4.84262269992E-03  4.90598777563E-03  4.97018197494E-03
  5.03521614683E-03  5.10110128224E-03  5.16784851591E-03  5.23546912828E-03
  5.30397454739E-03  5.37337635082E-03  5.44368626764E-03  5.51491618040E-03
  5.58707812713E-03  5.66018430335E-03  5.73424706419E-03  5.80927892643E-03
  5.88529257064E-03  5.96230084330E-03  6.04031675900E-03  6.11935350260E-03
  6.19942443151E-03  6.28054307790E-03  6.36272315102E-03  6.44597853950E-03
  6.53032331369E-03  6.61577172807E-03  6.70233822362E-03  6.79003743027E-03
  6.87888416942E-03  6.96889345636E-03  7.06008050288E-03  7.15246071981E-03
  7.24604971962E-03  7.34086331909E-03  7.43691754192E-03  7.53422862152E-03
  7.63281300370E-03  7.73268734943E-03  7.83386853773E-03  7.93637366846E-03
  8.04022006523E-03  8.14542527833E-03  8.25200708769E-03  8.35998350588E-03
  8.46937278119E-03  8.58019340065E-03  8.69246409322E-03  8.80620383291E-03
  8.92143184200E-03  9.03816759432E-03  9.15643081846E-03  9.27624150121E-03
  9.39761989085E-03  9.52058650062E-03  9.64516211217E-03  9.77136777907E-03
  9.89922483039E-03  1.00287548743E-02  1.01599798016E-02  1.02929217897E-02
  1.04276033060E-02  1.05640471122E-02  1.07022762674E-02  1.08423141328E-02
  1.09841843751E-02  1.11279109707E-02  1.12735182098E-02  1.14210307002E-02
  1.15704733720E-02  1.17218714814E-02  1.18752506149E-02  1.20306366941E-02
  1.21880559795E-02  1.23475350754E-02  1.25091009340E-02  1.26727808606E-02
  1.28386025172E-02  1.30065939282E-02  1.31767834846E-02  1.33491999487E-02
  1.35238724594E-02  1.37008305367E-02  1.38801040870E-02  1.40617234079E-02
  1.42457191936E-02  1.44321225397E-02  1.46209649488E-02  1.48122783358E-02
  1.50060950332E-02  1.52024477963E-02  1.54013698092E-02  1.56028946903E-02
  1.58070564978E-02  1.60138897354E-02  1.62234293585E-02  1.64357107798E-02
  1.66507698753E-02  1.68686429906E-02  1.70893669466E-02  1.73129790464E-02
  1.75395170808E-02  1.77690193354E-02  1.80015245965E-02  1.82370721581E-02
  1.84757018283E-02  1.87174539361E-02  1.89623693382E-02  1.92104894258E-02
  1.94618561319E-02  1.97165119379E-02  1.99744998814E-02  2.02358635630E-02
  2.05006471536E-02  2.07688954024E-02  2.10406536439E-02  2.13159678060E-02
  2.15948844174E-02  2.18774506157E-02  2.21637141551E-02  2.24537234151E-02
  2.27475274077E-02  2.30451757866E-02  2.33467188550E-02  2.36522075745E-02
  2.39616935734E-02  2.42752291555E-02  2.45928673092E-02  2.49146617159E-02
  2.52406667598E-02  2.55709375364E-02  2.59055298623E-02  2.62445002845E-02
  2.65879060896E-02  2.69358053142E-02  2.72882567539E-02  2.76453199740E-02
  2.80070553190E-02  2.83735239230E-02  2.87447877201E-02  2.91209094547E-02
  2.95019526923E-02  2.98879818301E-02  3.02790621080E-02  3.06752596195E-02
  3.10766413228E-02  3.14832750525E-02  3.18952295306E-02  3.23125743785E-02
  3.27353801283E-02  3.31637182352E-02  3.35976610895E-02  3.40372820284E-02
  3.44826553491E-02  3.49338563205E-02  3.53909611968E-02  3.58540472298E-02
  3.63231926821E-02  3.67984768405E-02  3.72799800290E-02  3.77677836228E-02
  3.82619700620E-02  3.87626228652E-02  3.92698266439E-02  3.97836671168E-02
  4.03042311241E-02  4.08316066424E-02  4.13658827994E-02  4.19071498891E-02
  4.24554993868E-02  4.30110239649E-02  4.35738175085E-02  4.41439751310E-02
  4.47215931903E-02  4.53067693053E-02  4.58996023722E-02  4.65001925811E-02
  4.71086414332E-02  4.77250517579E-02  4.83495277299E-02  4.89821748871E-02
  4.96231001485E-02  5.02724118320E-02  5.09302196726E-02  5.15966348417E-02
  5.22717699648E-02  5.29557391414E-02  5.36486579640E-02  5.43506435375E-02
  5.50618144991E-02  5.57822910384E-02  5.65121949177E-02  5.72516494924E-02
  5.80007797322E-02  5.87597122417E-02  5.95285752825E-02  6.03074987942E-02
  6.10966144167E-02  6.18960555125E-02  6.27059571890E-02  6.35264563215E-02
  6.43576915763E-02  6.51998034341E-02  6.60529342139E-02  6.69172280969E-02
  6.77928311506E-02  6.86798913541E-02  6.95785586228E-02  7.04889848335E-02
  7.14113238503E-02  7.23457315509E-02  7.32923658523E-02  7.42513867380E-02
  7.52229562847E-02  7.62072386901E-02  7.72044003002E-02  7.82146096377E-02
  7.92380374305E-02  8.02748566401E-02  8.13252424915E-02  8.23893725026E-02
  8.34674265136E-02  8.45595867184E-02  8.56660376946E-02  8.67869664351E-02
  8.79225623795E-02  8.90730174461E-02  9.02385260647E-02  9.14192852090E-02
  9.26154944301E-02  9.38273558902E-02  9.50550743968E-02  9.62988574371E-02
  9.75589152136E-02  9.88354606789E-02  1.00128709572E-01  1.01438880456E-01
  1.02766194752E-01  1.04110876779E-01  1.05473153793E-01  1.06853256020E-01
  1.08251416702E-01  1.09667872131E-01  1.11102861692E-01  1.12556627900E-01
  1.14029416447E-01  1.15521476236E-01  1.17033059430E-01  1.18564421489E-01
  1.20115821218E-01  1.21687520806E-01  1.23279785875E-01  1.24892885522E-01
  1.26527092363E-01  1.28182682584E-01  1.29859935983E-01  1.31559136021E-01
  1.33280569866E-01  1.35024528444E-01  1.36791306489E-01  1.38581202591E-01
  1.40394519245E-01  1.42231562907E-01  1.44092644042E-01  1.45978077177E-01
  1.47888180955E-01  1.49823278186E-01  1.51783695909E-01  1.53769765437E-01
  1.55781822422E-01  1.57820206905E-01  1.59885263380E-01  1.61977340844E-01
  1.64096792864E-01  1.66243977633E-01  1.68419258029E-01  1.70623001682E-01
  1.72855581027E-01  1.75117373377E-01  1.77408760980E-01  1.79730131086E-01
  1.82081876012E-01  1.84464393208E-01  1.86878085326E-01  1.89323360285E-01
  1.91800631342E-01  1.94310317163E-01  1.96852841890E-01  1.99428635215E-01
  2.02038132455E-01  2.04681774620E-01  2.07360008491E-01  2.10073286698E-01
  2.12822067791E-01  2.15606816319E-01  2.18428002912E-01  2.21286104358E-01
  2.24181603682E-01  2.27114990231E-01  2.30086759753E-01  2.33097414486E-01
  2.36147463236E-01  2.39237421470E-01  2.42367811398E-01  2.45539162062E-01
  2.48752009429E-01  2.52006896478E-01  2.55304373292E-01  2.58644997153E-01
  2.62029332634E-01  2.65457951696E-01  2.68931433784E-01  2.72450365924E-01
  2.76015342824E-01  2.79626966974E-01  2.83285848747E-01  2.86992606503E-01
  2.90747866692E-01  2.94552263963E-01  2.98406441268E-01  3.02311049971E-01
  3.06266749961E-01  3.10274209761E-01  3.14334106641E-01  3.18447126733E-01
  3.22613965147E-01  3.26835326090E-01  3.31111922980E-01  3.35444478574E-01
  3.39833725082E-01  3.44280404299E-01  3.48785267724E-01  3.53349076690E-01
  3.57972602490E-01  3.62656626512E-01  3.67401940367E-01  3.72209346024E-01
  3.77079655947E-01  3.82013693229E-01  3.87012291735E-01  3.92076296239E-01
  3.97206562570E-01  4.02403957756E-01  4.07669360168E-01  4.13003659672E-01
  4.18407757778E-01  4.23882567791E-01  4.29429014967E-01  4.35048036668E-01
  4.40740582523E-01  4.46507614585E-01  4.52350107497E-01  4.58269048654E-01
  4.64265438371E-01  4.70340290052E-01  4.76494630361E-01  4.82729499397E-01
  4.89045950867E-01  4.95445052267E-01  5.01927885060E-01  5.08495544860E-01
  5.15149141618E-01  5.21889799807E-01  5.28718658614E-01  5.35636872132E-01
  5.42645609557E-01  5.49746055381E-01  5.56939409598E-01  5.64226887900E-01
  5.71609721889E-01  5.79089159281E-01  5.86666464120E-01  5.94342916987E-01
  6.02119815222E-01  6.09998473139E-01  6.17980222250E-01  6.26066411489E-01
  6.34258407442E-01  6.42557594575E-01  6.50965375471E-01  6.59483171065E-01
  6.68112420884E-01  6.76854583293E-01  6.85711135737E-01  6.94683574996E-01
  7.03773417432E-01  7.12982199250E-01  7.22311476757E-01  7.31762826623E-01
  7.41337846148E-01  7.51038153534E-01  7.60865388155E-01  7.70821210838E-01
  7.80907304140E-01  7.91125372635E-01  8.01477143200E-01  8.11964365311E-01
  8.22588811332E-01  8.33352276820E-01  8.44256580826E-01  8.55303566204E-01
  8.66495099920E-01  8.77833073371E-01  8.89319402700E-01  9.00956029125E-01
  9.12744919263E-01  9.24688065465E-01  9.36787486150E-01  9.49045226151E-01
  9.61463357054E-01  9.74043977552E-01  9.86789213801E-01  9.99701219776E-01
  1.01278217764E+00  1.02603429809E+00  1.03945982079E+00  1.05306101467E+00
  1.06684017837E+00  1.08079964060E+00  1.09494176054E+00  1.10926892824E+00
  1.12378356503E+00  1.13848812392E+00  1.15338509002E+00  1.16847698093E+00
  1.18376634724E+00  1.19925577288E+00  1.21494787560E+00  1.23084530740E+00
  1.24695075499E+00  1.26326694022E+00  1.27979662058E+00  1.29654258960E+00
  1.31350767741E+00  1.33069475115E+00  1.34810671546E+00  1.36574651302E+00
  1.38361712499E+00  1.40172157155E+00  1.42006291239E+00  1.43864424724E+00
  1.45746871639E+00  1.47653950123E+00  1.49585982475E+00  1.51543295215E+00
  1.53526219132E+00  1.55535089346E+00  1.57570245360E+00  1.59632031120E+00
  1.61720795074E+00  1.63836890227E+00  1.65980674204E+00  1.68152509310E+00
  1.70352762591E+00  1.72581805893E+00  1.74840015932E+00  1.77127774350E+00
  1.79445467783E+00  1.81793487927E+00  1.84172231604E+00  1.86582100826E+00
  1.89023502867E+00  1.91496850329E+00  1.94002561216E+00  1.96541058997E+00
  1.99112772685E+00  2.01718136905E+00  2.04357591970E+00  2.07031583955E+00
  2.09740564771E+00  2.12484992241E+00  2.15265330180E+00  2.18082048472E+00
  2.20935623150E+00  2.23826536474E+00  2.26755277016E+00  2.29722339739E+00
  2.32728226084E+00  2.35773444053E+00  2.38858508295E+00  2.41983940194E+00
  2.45150267955E+00  2.48358026694E+00  2.51607758531E+00  2.54900012678E+00
  2.58235345534E+00  2.61614320778E+00  2.65037509465E+00  2.68505490122E+00
  2.72018848845E+00  2.75578179402E+00  2.79184083326E+00  2.82837170026E+00
  2.86538056880E+00  2.90287369348E+00  2.94085741072E+00  2.97933813986E+00
  3.01832238424E+00  3.05781673229E+00  3.09782785864E+00  3.13836252528E+00
  3.17942758265E+00  3.22102997084E+00  3.26317672078E+00  3.30587495534E+00
  3.34913189064E+00  3.39295483720E+00  3.43735120120E+00  3.48232848574E+00
  3.52789429207E+00  3.57405632095E+00  3.62082237384E+00  3.66820035434E+00
  3.71619826942E+00  3.76482423086E+00  3.81408645655E+00  3.86399327194E+00
  3.91455311138E+00  3.96577451962E+00  4.01766615318E+00  4.07023678189E+00
  4.12349529031E+00  4.17745067924E+00  4.23211206728E+00  4.28748869233E+00
  4.34358991318E+00  4.40042521106E+00  4.45800419127E+00  4.51633658480E+00
  4.57543224997E+00  4.63530117407E+00  4.69595347511E+00  4.75739940346E+00
  4.81964934363E+00  4.88271381601E+00  4.94660347865E+00  5.01132912905E+00
  5.07690170600E+00  5.14333229142E+00  5.21063211224E+00  5.27881254229E+00
  5.34788510423E+00  5.41786147147E+00  5.48875347020E+00  5.56057308133E+00
  5.63333244254E+00  5.70704385034E+00  5.78171976214E+00  5.85737279834E+00
  5.93401574448E+00  6.01166155341E+00  6.09032334745E+00  6.17001442063E+00
  6.25074824093E+00  6.33253845256E+00  6.41539887827E+00  6.49934352165E+00
  6.58438656956E+00  6.67054239446E+00  6.75782555691E+00  6.84625080797E+00
  6.93583309170E+00  7.02658754774E+00  7.11852951379E+00  7.21167452828E+00
  7.30603833292E+00  7.40163687543E+00  7.49848631219E+00  7.59660301099E+00
  7.69600355377E+00  7.79670473947E+00  7.89872358683E+00  8.00207733728E+00
  8.10678345784E+00  8.21285964410E+00  8.32032382319E+00  8.42919415680E+00
  8.53948904430E+00  8.65122712576E+00  8.76442728520E+00  8.87910865371E+00
  8.99529061272E+00  9.11299279725E+00  9.23223509925E+00  9.35303767096E+00
  9.47542092830E+00  9.59940555432E+00  9.72501250273E+00  9.85226300140E+00
  9.98117855597E+00  1.01117809535E+01  1.02440922660E+01  1.03781348545E+01
  1.05139313726E+01  1.06515047700E+01  1.07908782971E+01  1.09320755083E+01
  1.10751202663E+01  1.12200367460E+01  1.13668494386E+01  1.15155831558E+01
  1.16662630339E+01  1.18189145383E+01  1.19735634674E+01  1.21302359572E+01
  1.22889584857E+01  1.24497578775E+01  1.26126613080E+01  1.27776963083E+01
  1.29448907696E+01  1.31142729483E+01  1.32858714704E+01  1.34597153363E+01
  1.36358339262E+01  1.38142570045E+01  1.39950147250E+01  1.41781376364E+01
  1.43636566868E+01  1.45516032294E+01  1.47420090275E+01  1.49349062602E+01
  1.51303275277E+01  1.53283058565E+01  1.55288747055E+01  1.57320679712E+01
  1.59379199939E+01  1.61464655630E+01  1.63577399233E+01  1.65717787805E+01
  1.67886183077E+01  1.70082951514E+01  1.72308464375E+01  1.74563097776E+01
  1.76847232757E+01  1.79161255340E+01  1.81505556602E+01  1.83880532736E+01
  1.86286585117E+01  1.88724120374E+01  1.91193550456E+01  1.93695292704E+01
  1.96229769917E+01  1.98797410429E+01  2.01398648176E+01  2.04033922774E+01
  2.06703679590E+01  2.09408369820E+01  2.12148450563E+01  2.14924384900E+01
  2.17736641968E+01  2.20585697048E+01  2.23472031635E+01  2.26396133528E+01
  2.29358496906E+01  2.32359622416E+01  2.35400017255E+01  2.38480195257E+01
  2.41600676980E+01  2.44761989792E+01  2.47964667963E+01  2.51209252754E+01
  2.54496292505E+01  2.57826342736E+01  2.61199966233E+01  2.64617733146E+01
  2.68080221085E+01  2.71588015219E+01  2.75141708375E+01  2.78741901134E+01
  2.82389201938E+01  2.86084227190E+01  2.89827601356E+01  2.93619957077E+01
  2.97461935270E+01  3.01354185237E+01  3.05297364779E+01  3.09292140303E+01
  3.13339186934E+01  3.17439188634E+01  3.21592838312E+01  3.25800837945E+01
  3.30063898695E+01  3.34382741030E+01  3.38758094844E+01  3.43190699582E+01
  3.47681304365E+01  3.52230668116E+01  3.56839559688E+01  3.61508757996E+01
  3.66239052143E+01  3.71031241563E+01  3.75886136145E+01  3.80804556379E+01
  3.85787333489E+01  3.90835309577E+01  3.95949337762E+01  4.01130282328E+01
  4.06379018866E+01  4.11696434426E+01  4.17083427663E+01  4.22540908992E+01
  4.28069800740E+01  4.33671037303E+01  4.39345565304E+01  4.45094343751E+01
  4.50918344202E+01  4.56818550926E+01  4.62795961072E+01  4.68851584838E+01
  4.74986445637E+01  4.81201580276E+01  4.87498039127E+01  4.93876886307E+01
  5.00339199856E+01  5.06886071921E+01  5.13518608939E+01  5.20237931824E+01
  5.27045176157E+01  5.33941492380E+01  5.40928045986E+01  5.48006017718E+01
  5.55176603773E+01  5.62441015994E+01  5.69800482086E+01  5.77256245816E+01
  5.84809567225E+01  5.92461722843E+01  6.00214005902E+01  6.08067726557E+01
  6.16024212105E+01  6.24084807211E+01  6.32250874134E+01  6.40523792960E+01
  6.48904961832E+01  6.57395797187E+01  6.65997733996E+01  6.74712226007E+01
  6.83540745990E+01  6.92484785987E+01  7.01545857560E+01  7.10725492053E+01
  7.20025240846E+01  7.29446675618E+01  7.38991388614E+01  7.48660992915E+01
  7.58457122704E+01  7.68381433553E+01  7.78435602693E+01  7.88621329302E+01
  7.98940334793E+01  8.09394363102E+01  8.19985180985E+01  8.30714578315E+01
  8.41584368387E+01  8.52596388219E+01  8.63752498870E+01  8.75054585750E+01
  8.86504558937E+01  8.98104353504E+01  9.09855929845E+01  9.21761274004E+01
  9.33822398012E+01  9.46041340227E+01  9.58420165681E+01  9.70960966424E+01
  9.83665861881E+01  9.96536999210E+01  1.00957655366E+02  1.02278672896E+02
  1.03616975764E+02  1.04972790149E+02  1.06346345184E+02  1.07737873005E+02
  1.09147608783E+02  1.10575790766E+02  1.12022660322E+02  1.13488461973E+02
  1.14973443445E+02  1.16477855703E+02  1.18001952995E+02
  </PP_R>
  <PP_RAB>
  4.44593815225E-07  4.50411266326E-07  4.56304838003E-07  4.62275526284E-07
  4.68324340229E-07  4.74452302102E-07  4.80660447544E-07  4.86949825745E-07
  4.93321499626E-07  4.99776546014E-07  5.06316055828E-07  5.12941134261E-07
  5.19652900966E-07  5.26452490249E-07  5.33341051255E-07  5.40319748168E-07
  5.47389760405E-07  5.54552282814E-07  5.61808525878E-07  5.69159715921E-07
  5.76607095310E-07  5.84151922671E-07  5.91795473097E-07  5.99539038367E-07
  6.07383927161E-07  6.15331465284E-07  6.23382995890E-07  6.31539879706E-07
  6.39803495264E-07  6.48175239136E-07  6.56656526166E-07  6.65248789712E-07
  6.73953481886E-07  6.82772073803E-07  6.91706055826E-07  7.00756937819E-07
  7.09926249401E-07  7.19215540210E-07  7.28626380157E-07  7.38160359696E-07
  7.47819090093E-07  7.57604203696E-07  7.67517354213E-07  7.77560216989E-07
  7.87734489292E-07  7.98041890599E-07  8.08484162886E-07  8.19063070919E-07
  8.29780402562E-07  8.40637969067E-07  8.51637605390E-07  8.62781170495E-07
  8.74070547671E-07  8.85507644851E-07  8.97094394930E-07  9.08832756097E-07
  9.20724712163E-07  9.32772272896E-07  9.44977474364E-07  9.57342379274E-07
  9.69869077325E-07  9.82559685558E-07  9.95416348716E-07  1.00844123961E-06
  1.02163655947E-06  1.03500453834E-06  1.04854743544E-06  1.06226753955E-06
  1.07616716941E-06  1.09024867408E-06  1.10451443337E-06  1.11896685822E-06
  1.13360839114E-06  1.14844150658E-06  1.16346871136E-06  1.17869254513E-06
  1.19411558074E-06  1.20974042473E-06  1.22556971772E-06  1.24160613492E-06
  1.25785238651E-06  1.27431121814E-06  1.29098541141E-06  1.30787778428E-06
  1.32499119161E-06  1.34232852561E-06  1.35989271632E-06  1.37768673213E-06
  1.39571358029E-06  1.41397630736E-06  1.43247799979E-06  1.45122178441E-06
  1.47021082897E-06  1.48944834266E-06  1.50893757666E-06  1.52868182471E-06
  1.54868442362E-06  1.56894875388E-06  1.58947824022E-06  1.61027635217E-06
  1.63134660465E-06  1.65269255859E-06  1.67431782150E-06  1.69622604812E-06
  1.71842094097E-06  1.74090625105E-06  1.76368577843E-06  1.78676337290E-06
  1.81014293464E-06  1.83382841484E-06  1.85782381641E-06  1.88213319463E-06
  1.90676065783E-06  1.93171036813E-06  1.95698654207E-06  1.98259345140E-06
  2.00853542374E-06  2.03481684335E-06  2.06144215185E-06  2.08841584897E-06
  2.11574249335E-06  2.14342670324E-06  2.17147315735E-06  2.19988659559E-06
  2.22867181990E-06  2.25783369505E-06  2.28737714947E-06  2.31730717607E-06
  2.34762883310E-06  2.37834724499E-06  2.40946760323E-06  2.44099516723E-06
  2.47293526522E-06  2.50529329515E-06  2.53807472561E-06  2.57128509675E-06
  2.60493002118E-06  2.63901518499E-06  2.67354634865E-06  2.70852934800E-06
  2.74397009526E-06  2.77987458000E-06  2.81624887015E-06  2.85309911307E-06
  2.89043153653E-06  2.92825244980E-06  2.96656824470E-06  3.00538539669E-06
  3.04471046598E-06  3.08455009857E-06  3.12491102748E-06  3.16580007378E-06
  3.20722414784E-06  3.24919025040E-06  3.29170547386E-06  3.33477700337E-06
  3.37841211813E-06  3.42261819259E-06  3.46740269766E-06  3.51277320204E-06
  3.55873737345E-06  3.60530297995E-06  3.65247789124E-06  3.70027007998E-06
  3.74868762317E-06  3.79773870349E-06  3.84743161070E-06  3.89777474300E-06
  3.94877660851E-06  4.00044582667E-06  4.05279112969E-06  4.10582136406E-06
  4.15954549201E-06  4.21397259305E-06  4.26911186549E-06  4.32497262799E-06
  4.38156432116E-06  4.43889650913E-06  4.49697888118E-06  4.55582125336E-06
  4.61543357017E-06  4.67582590625E-06  4.73700846803E-06  4.79899159552E-06
  4.86178576400E-06  4.92540158586E-06  4.98984981230E-06  5.05514133524E-06
  5.12128718910E-06  5.18829855268E-06  5.25618675106E-06  5.32496325752E-06
  5.39463969544E-06  5.46522784031E-06  5.53673962169E-06  5.60918712525E-06
  5.68258259478E-06  5.75693843429E-06  5.83226721010E-06  5.90858165295E-06
  5.98589466017E-06  6.06421929782E-06  6.14356880298E-06  6.22395658588E-06
  6.30539623226E-06  6.38790150561E-06  6.47148634952E-06  6.55616489002E-06
  6.64195143800E-06  6.72886049157E-06  6.81690673859E-06  6.90610505907E-06
  6.99647052774E-06  7.08801841658E-06  7.18076419741E-06  7.27472354447E-06
  7.36991233713E-06  7.46634666251E-06  7.56404281826E-06  7.66301731524E-06
  7.76328688038E-06  7.86486845949E-06  7.96777922008E-06  8.07203655433E-06
  8.17765808197E-06  8.28466165328E-06  8.39306535214E-06  8.50288749901E-06
  8.61414665411E-06  8.72686162050E-06  8.84105144727E-06  8.95673543278E-06
  9.07393312789E-06  9.19266433930E-06  9.31294913287E-06  9.43480783700E-06
  9.55826104611E-06  9.68332962409E-06  9.81003470782E-06  9.93839771077E-06
  1.00684403266E-05  1.02001845328E-05  1.03336525944E-05  1.04688670680E-05
  1.06058508050E-05  1.07446269560E-05  1.08852189745E-05  1.10276506210E-05
  1.11719459667E-05  1.13181293978E-05  1.14662256197E-05  1.16162596611E-05
  1.17682568780E-05  1.19222429583E-05  1.20782439260E-05  1.22362861457E-05
  1.23963963269E-05  1.25586015286E-05  1.27229291638E-05  1.28894070043E-05
  1.30580631853E-05  1.32289262101E-05  1.34020249549E-05  1.35773886738E-05
  1.37550470037E-05  1.39350299692E-05  1.41173679880E-05  1.43020918756E-05
  1.44892328508E-05  1.46788225408E-05  1.48708929867E-05  1.50654766490E-05
  1.52626064126E-05  1.54623155931E-05  1.56646379417E-05  1.58696076514E-05
  1.60772593626E-05  1.62876281689E-05  1.65007496231E-05  1.67166597432E-05
  1.69353950187E-05  1.71569924162E-05  1.73814893862E-05  1.76089238694E-05
  1.78393343025E-05  1.80727596257E-05  1.83092392882E-05  1.85488132557E-05
  1.87915220169E-05  1.90374065900E-05  1.92865085301E-05  1.95388699360E-05
  1.97945334575E-05  2.00535423022E-05  2.03159402433E-05  2.05817716267E-05
  2.08510813785E-05  2.11239150126E-05  2.14003186387E-05  2.16803389695E-05
  2.19640233293E-05  2.22514196612E-05  2.25425765361E-05  2.28375431600E-05