<PP_INFO>
Generated using unknown code
Author: X. Gonze et al    Generation date: 1990
Info:  In BHS modified for use as KB with l=2 as local part
    1        The Pseudo was generated with a Scalar-Relativistic Calculation
  0.00000000000E+00    Local Potential cutoff radius
nl pn  l   occ               Rcut            Rcut US             E pseu
5S  0  0  2.00      0.00000000000      0.00000000000      0.00000000000
5P  0  1  1.00      0.00000000000      0.00000000000      0.00000000000
</PP_INFO>


<PP_HEADER>
   0                   Version Number
  In                   Element
   NC                  Norm - Conserving pseudopotential
    F                  Nonlinear Core Correction
 SLA  PZ   NOGX NOGC   PZ   Exchange-Correlation functional
    3.00000000000      Z valence
    0.00000000000      Total energy
  0.0000000  0.0000000 Suggested cutoff for wfc and rho
    1                  Max angular momentum component
  481                  Number of points in mesh
    2    2             Number of Wavefunctions, Number of Projectors
 Wavefunctions         nl  l   occ
                       5S  0  2.00
                       5P  1  1.00
</PP_HEADER>


<PP_MESH>
  <PP_R>
  3.73788548750E-04  3.83251050912E-04  3.92953097457E-04  4.02900752479E-04
  4.13100233588E-04  4.23557915790E-04  4.34280335477E-04  4.45274194511E-04
  4.56546364412E-04  4.68103890652E-04  4.79953997061E-04  4.92104090343E-04
  5.04561764701E-04  5.17334806586E-04  5.30431199566E-04  5.43859129313E-04
  5.57626988720E-04  5.71743383147E-04  5.86217135801E-04  6.01057293247E-04
  6.16273131068E-04  6.31874159657E-04  6.47870130165E-04  6.64271040594E-04
  6.81087142047E-04  6.98328945136E-04  7.16007226548E-04  7.34133035784E-04
  7.52717702066E-04  7.71772841415E-04  7.91310363913E-04  8.11342481147E-04
  8.31881713844E-04  8.52940899692E-04  8.74533201368E-04  8.96672114763E-04
  9.19371477420E-04  9.42645477177E-04  9.66508661044E-04  9.90975944286E-04
  1.01606261975E-03  1.04178436743E-03  1.06815726425E-03  1.09519779414E-03
  1.12292285829E-03  1.15134978579E-03  1.18049634438E-03  1.21038075162E-03
  1.24102168623E-03  1.27243829979E-03  1.30465022871E-03  1.33767760649E-03
  1.37154107632E-03  1.40626180397E-03  1.44186149103E-03  1.47836238845E-03
  1.51578731050E-03  1.55415964895E-03  1.59350338778E-03  1.63384311810E-03
  1.67520405355E-03  1.71761204607E-03  1.76109360203E-03  1.80567589882E-03
  1.85138680182E-03  1.89825488185E-03  1.94630943297E-03  1.99558049084E-03
  2.04609885149E-03  2.09789609052E-03  2.15100458290E-03  2.20545752316E-03
  2.26128894617E-03  2.31853374838E-03  2.37722770966E-03  2.43740751565E-03
  2.49911078067E-03  2.56237607129E-03  2.62724293036E-03  2.69375190179E-03
  2.76194455585E-03  2.83186351516E-03  2.90355248136E-03  2.97705626237E-03
  3.05242080046E-03  3.12969320092E-03  3.20892176150E-03  3.29015600265E-03
  3.37344669840E-03  3.45884590815E-03  3.54640700919E-03  3.63618473006E-03
  3.72823518475E-03  3.82261590780E-03  3.91938589022E-03  4.01860561641E-03
  4.12033710193E-03  4.22464393227E-03  4.33159130259E-03  4.44124605847E-03
  4.55367673772E-03  4.66895361317E-03  4.78714873661E-03  4.90833598384E-03
  5.03259110085E-03  5.15999175112E-03  5.29061756420E-03  5.42455018549E-03
  5.56187332722E-03  5.70267282085E-03  5.84703667062E-03  5.99505510864E-03
  6.14682065127E-03  6.30242815690E-03  6.46197488529E-03  6.62556055833E-03
  6.79328742241E-03  6.96526031227E-03  7.14158671655E-03  7.32237684502E-03
  7.50774369738E-03  7.69780313394E-03  7.89267394805E-03  8.09247794031E-03
  8.29733999471E-03  8.50738815670E-03  8.72275371324E-03  8.94357127479E-03
  9.16997885954E-03  9.40211797957E-03  9.64013372941E-03  9.88417487664E-03
  1.01343939549E-02  1.03909473593E-02  1.06539954441E-02  1.09237026228E-02
  1.12002374713E-02  1.14837728328E-02  1.17744859261E-02  1.20725584565E-02
  1.23781767288E-02  1.26915317646E-02  1.30128194209E-02  1.33422405129E-02
  1.36800009395E-02  1.40263118121E-02  1.43813895861E-02  1.47454561968E-02
  1.51187391976E-02  1.55014719026E-02  1.58938935321E-02  1.62962493624E-02
  1.67087908791E-02  1.71317759341E-02  1.75654689066E-02  1.80101408691E-02
  1.84660697558E-02  1.89335405373E-02  1.94128453980E-02  1.99042839189E-02
  2.04081632653E-02  2.09247983780E-02  2.14545121709E-02  2.19976357323E-02
  2.25545085322E-02  2.31254786340E-02  2.37109029128E-02  2.43111472778E-02
  2.49265869012E-02  2.55576064529E-02  2.62046003406E-02  2.68679729565E-02
  2.75481389301E-02  2.82455233874E-02  2.89605622162E-02  2.96937023391E-02
  3.04454019927E-02  3.12161310135E-02  3.20063711325E-02  3.28166162752E-02
  3.36473728714E-02  3.44991601710E-02  3.53725105687E-02  3.62679699370E-02
  3.71860979672E-02  3.81274685190E-02  3.90926699799E-02  4.00823056320E-02
  4.10969940300E-02  4.21373693871E-02  4.32040819717E-02  4.42977985139E-02
  4.54192026223E-02  4.65689952108E-02  4.77478949373E-02  4.89566386524E-02
  5.01959818603E-02  5.14666991910E-02  5.27695848840E-02  5.41054532854E-02
  5.54751393563E-02  5.68794991952E-02  5.83194105727E-02  5.97957734803E-02
  6.13095106928E-02  6.28615683453E-02  6.44529165243E-02  6.60845498742E-02
  6.77574882191E-02  6.94727771998E-02  7.12314889278E-02  7.30347226551E-02
  7.48836054616E-02  7.67792929592E-02  7.87229700142E-02  8.07158514882E-02
  8.27591829968E-02  8.48542416889E-02  8.70023370443E-02  8.92048116924E-02
  9.14630422518E-02  9.37784401899E-02  9.61524527059E-02  9.85865636349E-02
  1.01082294375E-01  1.03641204840E-01  1.06264894432E-01  1.08955003042E-01
  1.11713212076E-01  1.14541245504E-01  1.17440870939E-01  1.20413900741E-01
  1.23462193151E-01  1.26587653451E-01  1.29792235155E-01  1.33077941231E-01
  1.36446825353E-01  1.39900993182E-01  1.43442603685E-01  1.47073870486E-01
  1.50797063243E-01  1.54614509074E-01  1.58528594006E-01  1.62541764470E-01
  1.66656528828E-01  1.70875458941E-01  1.75201191779E-01  1.79636431065E-01
  1.84183948968E-01  1.88846587835E-01  1.93627261967E-01  1.98528959440E-01
  2.03554743976E-01  2.08707756853E-01  2.13991218872E-01  2.19408432369E-01
  2.24962783278E-01  2.30657743251E-01  2.36496871821E-01  2.42483818635E-01
  2.48622325729E-01  2.54916229870E-01  2.61369464952E-01  2.67986064459E-01
  2.74770163980E-01  2.81726003797E-01  2.88857931538E-01  2.96170404890E-01
  3.03667994385E-01  3.11355386262E-01  3.19237385392E-01  3.27318918279E-01
  3.35605036145E-01  3.44100918083E-01  3.52811874297E-01  3.61743349418E-01
  3.70900925907E-01  3.80290327549E-01  3.89917423025E-01  3.99788229584E-01
  4.09908916800E-01  4.20285810433E-01  4.30925396378E-01  4.41834324725E-01
  4.53019413907E-01  4.64487654970E-01  4.76246215938E-01  4.88302446293E-01
  5.00663881574E-01  5.13338248078E-01  5.26333467698E-01  5.39657662869E-01
  5.53319161646E-01  5.67326502912E-01  5.81688441710E-01  5.96413954719E-01
  6.11512245865E-01  6.26992752071E-01  6.42865149158E-01  6.59139357890E-01
  6.75825550177E-01  6.92934155434E-01  7.10475867094E-01  7.28461649299E-01
  7.46902743749E-01  7.65810676727E-01  7.85197266307E-01  8.05074629739E-01
  8.25455191022E-01  8.46351688670E-01  8.67777183675E-01  8.89745067668E-01
  9.12269071292E-01  9.35363272782E-01  9.59042106767E-01  9.83320373288E-01
  1.00821324705E+00  1.03373628692E+00  1.05990544561E+00  1.08673707971E+00
  1.11424795986E+00  1.14245528126E+00  1.17137667440E+00  1.20103021609E+00
  1.23143444076E+00  1.26260835205E+00  1.29457143466E+00  1.32734366655E+00
  1.36094553145E+00  1.39539803160E+00  1.43072270095E+00  1.46694161856E+00
  1.50407742244E+00  1.54215332367E+00  1.58119312092E+00  1.62122121535E+00
  1.66226262582E+00  1.70434300453E+00  1.74748865311E+00  1.79172653897E+00
  1.83708431226E+00  1.88359032303E+00  1.93127363908E+00  1.98016406402E+00
  2.03029215596E+00  2.08168924659E+00  2.13438746076E+00  2.18841973657E+00
  2.24381984596E+00  2.30062241580E+00  2.35886294953E+00  2.41857784940E+00
  2.47980443916E+00  2.54258098741E+00  2.60694673155E+00  2.67294190226E+00
  2.74060774867E+00  2.80998656414E+00  2.88112171268E+00  2.95405765609E+00
  3.02883998169E+00  3.10551543087E+00  3.18413192829E+00  3.26473861182E+00
  3.34738586326E+00  3.43212533983E+00  3.51901000647E+00  3.60809416891E+00
  3.69943350766E+00  3.79308511277E+00  3.88910751956E+00  3.98756074515E+00
  4.08850632602E+00  4.19200735642E+00  4.29812852789E+00  4.40693616960E+00
  4.51849828988E+00  4.63288461868E+00  4.75016665118E+00  4.87041769246E+00
  4.99371290335E+00  5.12012934736E+00  5.24974603889E+00  5.38264399259E+00
  5.51890627400E+00  5.65861805149E+00  5.80186664947E+00  5.94874160297E+00
  6.09933471361E+00  6.25374010701E+00  6.41205429154E+00  6.57437621874E+00
  6.74080734509E+00  6.91145169547E+00  7.08641592814E+00  7.26580940144E+00
  7.44974424215E+00  7.63833541552E+00  7.83170079717E+00  8.02996124676E+00
  8.23324068353E+00  8.44166616374E+00  8.65536796010E+00  8.87447964319E+00
  9.09913816495E+00  9.32948394426E+00  9.56566095474E+00  9.80781681471E+00
  1.00561028795E+01  1.03106743359E+01  1.05716902994E+01  1.08393139134E+01
  1.11137124515E+01  1.13950574217E+01  1.16835246737E+01  1.19792945090E+01
  1.22825517933E+01  1.25934860723E+01  1.29122916900E+01  1.32391679104E+01
  1.35743190417E+01  1.39179545643E+01  1.42702892615E+01  1.46315433541E+01
  1.50019426376E+01  1.53817186236E+01  1.57711086844E+01  1.61703562015E+01
  1.65797107177E+01  1.69994280928E+01  1.74297706638E+01  1.78710074089E+01
  1.83234141153E+01  1.87872735521E+01  1.92628756464E+01  1.97505176650E+01
  2.02505044001E+01  2.07631483597E+01  2.12887699629E+01  2.18276977403E+01
  2.23802685394E+01  2.29468277348E+01  2.35277294446E+01  2.41233367511E+01
  2.47340219284E+01  2.53601666746E+01  2.60021623505E+01  2.66604102243E+01
  2.73353217223E+01  2.80273186863E+01  2.87368336368E+01  2.94643100438E+01
  3.02102026038E+01  3.09749775237E+01  3.17591128130E+01  3.25630985816E+01
  3.33874373469E+01  3.42326443473E+01  3.50992478648E+01  3.59877895548E+01
  3.68988247848E+01  3.78329229815E+01  3.87906679865E+01  3.97726584218E+01
  4.07795080633E+01  4.18118462249E+01  4.28703181514E+01  4.39555854224E+01
  4.50683263650E+01  4.62092364788E+01  4.73790288696E+01  4.85784346958E+01
  4.98082036250E+01  5.10691043029E+01  5.23619248334E+01  5.36874732714E+01
  5.50465781279E+01  5.64400888877E+01  5.78688765403E+01  5.93338341245E+01
  6.08358772866E+01
  </PP_R>
  <PP_RAB>
  9.34471371874E-06  9.58127627280E-06  9.82382743642E-06  1.00725188120E-05
  1.03275058397E-05  1.05889478947E-05  1.08570083869E-05  1.11318548628E-05
  1.14136591103E-05  1.17025972663E-05  1.19988499265E-05  1.23026022586E-05
  1.26140441175E-05  1.29333701647E-05  1.32607799892E-05  1.35964782328E-05
  1.39406747180E-05  1.42935845787E-05  1.46554283950E-05  1.50264323312E-05
  1.54068282767E-05  1.57968539914E-05  1.61967532541E-05  1.66067760148E-05
  1.70271785512E-05  1.74582236284E-05  1.79001806637E-05  1.83533258946E-05
  1.88179425517E-05  1.92943210354E-05  1.97827590978E-05  2.02835620287E-05
  2.07970428461E-05  2.13235224923E-05  2.18633300342E-05  2.24168028691E-05
  2.29842869355E-05  2.35661369294E-05  2.41627165261E-05  2.47743986071E-05
  2.54015654938E-05  2.60446091858E-05  2.67039316063E-05  2.73799448534E-05
  2.80730714574E-05  2.87837446448E-05  2.95124086096E-05  3.02595187905E-05
  3.10255421557E-05  3.18109574947E-05  3.26162557177E-05  3.34419401623E-05
  3.42885269080E-05  3.51565450993E-05  3.60465372757E-05  3.69590597114E-05
  3.78946827624E-05  3.88539912238E-05  3.98375846945E-05  4.08460779524E-05
  4.18801013387E-05  4.29403011517E-05  4.40273400507E-05  4.51418974705E-05
  4.62846700456E-05  4.74563720463E-05  4.86577358243E-05  4.98895122711E-05
  5.11524712871E-05  5.24474022629E-05  5.37751145724E-05  5.51364380790E-05
  5.65322236543E-05  5.79633437096E-05  5.94306927416E-05  6.09351878912E-05
  6.24777695168E-05  6.40594017822E-05  6.56810732591E-05  6.73437975448E-05
  6.90486138962E-05  7.07965878791E-05  7.25888120339E-05  7.44264065593E-05
  7.63105200115E-05  7.82423300229E-05  8.02230440376E-05  8.22539000662E-05
  8.43361674600E-05  8.64711477038E-05  8.86601752298E-05  9.09046182515E-05
  9.32058796187E-05  9.55653976949E-05  9.79846472555E-05  1.00465140410E-04
  1.03008427548E-04  1.05616098307E-04  1.08289782565E-04  1.11031151462E-04
  1.13841918443E-04  1.16723840329E-04  1.19678718415E-04  1.22708399596E-04
  1.25814777521E-04  1.28999793778E-04  1.32265439105E-04  1.35613754637E-04
  1.39046833181E-04  1.42566820521E-04  1.46175916765E-04  1.49876377716E-04
  1.53670516282E-04  1.57560703922E-04  1.61549372132E-04  1.65639013958E-04
  1.69832185560E-04  1.74131507807E-04  1.78539667914E-04  1.83059421125E-04
  1.87693592434E-04  1.92445078349E-04  1.97316848701E-04  2.02311948508E-04
  2.07433499868E-04  2.12684703918E-04  2.18068842831E-04  2.23589281870E-04
  2.29249471488E-04  2.35052949489E-04  2.41003343235E-04  2.47104371916E-04
  2.53359848873E-04  2.59773683983E-04  2.66349886103E-04  2.73092565571E-04
  2.80005936783E-04  2.87094320820E-04  2.94362148153E-04  3.01813961412E-04
  3.09454418221E-04  3.17288294115E-04  3.25320485521E-04  3.33556012821E-04
  3.42000023488E-04  3.50657795302E-04  3.59534739652E-04  3.68636404919E-04
  3.77968479940E-04  3.87536797564E-04  3.97347338302E-04  4.07406234061E-04
  4.17719771979E-04  4.28294398352E-04  4.39136722666E-04  4.50253521727E-04
  4.61651743896E-04  4.73338513433E-04  4.85321134949E-04  4.97607097974E-04
  5.10204081633E-04  5.23119959451E-04  5.36362804273E-04  5.49940893308E-04
  5.63862713304E-04  5.78136965850E-04  5.92772572821E-04  6.07778681945E-04
  6.23164672531E-04  6.38940161322E-04  6.55115008514E-04  6.71699323912E-04
  6.88703473253E-04  7.06138084684E-04  7.24014055405E-04  7.42342558479E-04
  7.61135049817E-04  7.80403275338E-04  8.00159278311E-04  8.20415406881E-04
  8.41184321786E-04  8.62479004275E-04  8.84312764218E-04  9.06699248426E-04
  9.29652449179E-04  9.53186712976E-04  9.77316749497E-04  1.00205764080E-03
  1.02742485075E-03  1.05343423468E-03  1.08010204929E-03  1.10744496285E-03
  1.13548006556E-03  1.16422488027E-03  1.19369737343E-03  1.22391596631E-03
  1.25489954651E-03  1.28666747977E-03  1.31923962210E-03  1.35263633213E-03
  1.38687848391E-03  1.42198747988E-03  1.45798526432E-03  1.49489433701E-03
  1.53273776732E-03  1.57153920863E-03  1.61132291311E-03  1.65211374686E-03
  1.69393720548E-03  1.73681943000E-03  1.78078722319E-03  1.82586806638E-03
  1.87209013654E-03  1.91948232398E-03  1.96807425036E-03  2.01789628720E-03
  2.06897957492E-03  2.12135604222E-03  2.17505842611E-03  2.23012029231E-03
  2.28657605629E-03  2.34446100475E-03  2.40381131765E-03  2.46466409087E-03
  2.52705735939E-03  2.59103012101E-03  2.65662236081E-03  2.72387507606E-03
  2.79283030190E-03  2.86353113760E-03  2.93602177347E-03  3.01034751853E-03
  3.08655482878E-03  3.16469133628E-03  3.24480587888E-03  3.32694853078E-03
  3.41117063382E-03  3.49752482954E-03  3.58606509214E-03  3.67684676215E-03
  3.76992658109E-03  3.86536272686E-03  3.96321485016E-03  4.06354411175E-03
  4.16641322070E-03  4.27188647353E-03  4.38002979448E-03  4.49091077663E-03
  4.60459872420E-03  4.72116469587E-03  4.84068154916E-03  4.96322398600E-03
  5.08886859940E-03  5.21769392132E-03  5.34978047180E-03  5.48521080922E-03
  5.62406958196E-03  5.76644358127E-03  5.91242179552E-03  6.06209546587E-03
  6.21555814322E-03  6.37290574674E-03  6.53423662381E-03  6.69965161147E-03
  6.86925409949E-03  7.04315009493E-03  7.22144828846E-03  7.40426012224E-03
  7.59169985963E-03  7.78388465656E-03  7.98093463479E-03  8.18297295697E-03
  8.39012590362E-03  8.60252295209E-03  8.82029685743E-03  9.04358373544E-03
  9.27252314768E-03  9.50725818872E-03  9.74793557563E-03  9.99470573959E-03
  1.02477229200E-02  1.05071452608E-02  1.07731349095E-02  1.10458581181E-02
  1.13254853477E-02  1.16121913742E-02  1.19061553984E-02  1.22075611573E-02
  1.25165970393E-02  1.28334562019E-02  1.31583366924E-02  1.34914415717E-02
  1.38329790412E-02  1.41831625728E-02  1.45422110427E-02  1.49103488680E-02
  1.52878061466E-02  1.56748188018E-02  1.60716287290E-02  1.64784839473E-02
  1.68956387544E-02  1.73233538858E-02  1.77618966773E-02  1.82115412325E-02
  1.86725685937E-02  1.91452669182E-02  1.96299316577E-02  2.01268657435E-02
  2.06363797755E-02  2.11587922168E-02  2.16944295919E-02  2.22436266917E-02
  2.28067267823E-02  2.33840818196E-02  2.39760526692E-02  2.45830093322E-02
  2.52053311763E-02  2.58434071729E-02  2.64976361402E-02  2.71684269927E-02
  2.78561989965E-02  2.85613820315E-02  2.92844168599E-02  3.00257554022E-02
  3.07858610191E-02  3.15652088012E-02  3.23642858664E-02  3.31835916638E-02
  3.40236382862E-02  3.48849507901E-02  3.57680675238E-02  3.66735404641E-02
  3.76019355610E-02  3.85538330917E-02  3.95298280231E-02  4.05305303838E-02
  4.15565656454E-02  4.26085751133E-02  4.36872163277E-02  4.47931634744E-02
  4.59271078064E-02  4.70897580758E-02  4.82818409770E-02  4.95041016005E-02
  5.07573038989E-02  5.20422311646E-02  5.33596865189E-02  5.47104934143E-02
  5.60954961490E-02  5.75155603949E-02  5.89715737384E-02  6.04644462351E-02
  6.19951109789E-02  6.35645246853E-02  6.51736682888E-02  6.68235475565E-02
  6.85151937168E-02  7.02496641035E-02  7.20280428171E-02  7.38514414021E-02
  7.57209995421E-02  7.76378857718E-02  7.96032982073E-02  8.16184652956E-02
  8.36846465816E-02  8.58031334958E-02  8.79752501617E-02  9.02023542227E-02
  9.24858376914E-02  9.48271278194E-02  9.72276879891E-02  9.96890186289E-02
  1.02212658150E-01  1.04800183911E-01  1.07453213197E-01  1.10173404240E-01
  1.12962457247E-01  1.15822115467E-01  1.18754166279E-01  1.21760442312E-01
  1.24842822584E-01  1.28003233684E-01  1.31243650972E-01  1.34566099815E-01
  1.37972656850E-01  1.41465451287E-01  1.45046666237E-01  1.48718540074E-01
  1.52483367840E-01  1.56343502675E-01  1.60301357289E-01  1.64359405469E-01
  1.68520183627E-01  1.72786292387E-01  1.77160398203E-01  1.81645235036E-01
  1.86243606054E-01  1.90958385388E-01  1.95792519929E-01  2.00749031169E-01
  2.05831017088E-01  2.11041654093E-01  2.16384199002E-01  2.21861991080E-01
  2.27478454124E-01  2.33237098607E-01  2.39141523869E-01  2.45195420368E-01
  2.51402571986E-01  2.57766858396E-01  2.64292257484E-01  2.70982847836E-01
  2.77842811289E-01  2.84876435543E-01  2.92088116844E-01  2.99482362725E-01
  3.07063794833E-01  3.14837151808E-01  3.22807292251E-01  3.30979197761E-01
  3.39357976043E-01  3.47948864107E-01  3.56757231539E-01  3.65788583853E-01
  3.75048565940E-01  3.84542965589E-01  3.94277717110E-01  4.04258905039E-01
  4.14492767943E-01  4.24985702320E-01  4.35744266595E-01  4.46775185222E-01
  4.58085352883E-01  4.69681838802E-01  4.81571891159E-01  4.93762941625E-01
  5.06262610003E-01  5.19078708992E-01  5.32219249072E-01  5.45692443507E-01
  5.59506713484E-01  5.73670693370E-01  5.88193236114E-01  6.03083418778E-01
  6.18350548210E-01  6.34004166865E-01  6.50054058762E-01  6.66510255607E-01
  6.83383043058E-01  7.00682967158E-01  7.18420840921E-01  7.36607751096E-01
  7.55255065094E-01  7.74374438094E-01  7.93977820325E-01  8.14077464540E-01
  8.34685933671E-01  8.55816108682E-01  8.77481196620E-01  8.99694738871E-01
  9.22470619620E-01  9.45823074536E-01  9.69766699663E-01  9.94316460546E-01
  1.01948770158E+00  1.04529615562E+00  1.07175795379E+00  1.09888963556E+00
  1.12670815913E+00  1.15523091197E+00  1.18447572174E+00  1.21446086739E+00
  1.24520509062E+00  1.27672760757E+00  1.30904812083E+00  1.34218683179E+00
  1.37616445320E+00  1.41100222219E+00  1.44672191351E+00  1.48334585311E+00
  1.52089693216E+00
  </PP_RAB>
</PP_MESH>


<PP_LOCAL>
 -1.59751746486E-01 -1.59751767290E-01 -1.59751789160E-01 -1.59751812157E-01
 -1.59751836333E-01 -1.59751861741E-01 -1.59751888461E-01 -1.59751916546E-01
 -1.59751946069E-01 -1.59751977107E-01 -1.59752009738E-01 -1.59752044040E-01
 -1.59752080104E-01 -1.59752118015E-01 -1.59752157864E-01 -1.59752199767E-01
 -1.59752243813E-01 -1.59752290117E-01 -1.59752338791E-01 -1.59752389970E-01
 -1.59752443767E-01 -1.59752500320E-01 -1.59752559778E-01 -1.59752622278E-01
 -1.59752687988E-01 -1.59752757067E-01 -1.59752829687E-01 -1.59752906031E-01
 -1.59752986291E-01 -1.59753070661E-01 -1.59753159360E-01 -1.59753252605E-01
 -1.59753350632E-01 -1.59753453683E-01 -1.59753562015E-01 -1.59753675909E-01
 -1.59753795639E-01 -1.59753921504E-01 -1.59754053829E-01 -1.59754192932E-01
 -1.59754339171E-01 -1.59754492909E-01 -1.59754654526E-01 -1.59754824428E-01
 -1.59755003043E-01 -1.59755190818E-01 -1.59755388218E-01 -1.59755595737E-01
 -1.59755813901E-01 -1.59756043245E-01 -1.59756284350E-01 -1.59756537817E-01
 -1.59756804278E-01 -1.59757084406E-01 -1.59757378893E-01 -1.59757688474E-01
 -1.59758013933E-01 -1.59758356078E-01 -1.59758715764E-01 -1.59759093886E-01
 -1.59759491405E-01 -1.59759909302E-01 -1.59760348619E-01 -1.59760810464E-01
 -1.59761295991E-01 -1.59761806411E-01 -1.59762342996E-01 -1.59762907095E-01
 -1.59763500112E-01 -1.59764123541E-01 -1.59764778927E-01 -1.59765467918E-01
 -1.59766192233E-01 -1.59766953684E-01 -1.59767754181E-01 -1.59768595709E-01
 -1.59769480394E-01 -1.59770410426E-01 -1.59771388150E-01 -1.59772416001E-01
 -1.59773496547E-01 -1.59774632492E-01 -1.59775826681E-01 -1.59777082100E-01
 -1.59778401879E-01 -1.59779789319E-01 -1.59781247900E-01 -1.59782781261E-01
 -1.59784393241E-01 -1.59786087867E-01 -1.59787869367E-01 -1.59789742213E-01
 -1.59791711078E-01 -1.59793780888E-01 -1.59795956815E-01 -1.59798244302E-01
 -1.59800649065E-01 -1.59803177123E-01 -1.59805834787E-01 -1.59808628716E-01
 -1.59811565880E-01 -1.59814653632E-01 -1.59817899696E-01 -1.59821312179E-01
 -1.59824899612E-01 -1.59828670974E-01 -1.59832635687E-01 -1.59836803662E-01
 -1.59841185326E-01 -1.59845791633E-01 -1.59850634090E-01 -1.59855724814E-01
 -1.59861076532E-01 -1.59866702611E-01 -1.59872617134E-01 -1.59878834875E-01
 -1.59885371380E-01 -1.59892242993E-01 -1.59899466885E-01 -1.59907061129E-01
 -1.59915044698E-01 -1.59923437554E-01 -1.59932260670E-01 -1.59941536109E-01
 -1.59951287055E-01 -1.59961537887E-01 -1.59972314216E-01 -1.59983642986E-01
 -1.59995552513E-01 -1.60008072566E-01 -1.60021234433E-01 -1.60035071014E-01
 -1.60049616886E-01 -1.60064908404E-01 -1.60080983783E-01 -1.60097883202E-01
 -1.60115648893E-01 -1.60134325238E-01 -1.60153958920E-01 -1.60174598999E-01
 -1.60196297040E-01 -1.60219107260E-01 -1.60243086651E-01 -1.60268295124E-01
 -1.60294795651E-01 -1.60322654444E-01 -1.60351941087E-01 -1.60382728733E-01
 -1.60415094288E-01 -1.60449118588E-01 -1.60484886605E-01 -1.60522487670E-01
 -1.60562015670E-01 -1.60603569312E-01 -1.60647252345E-01 -1.60693173826E-01
 -1.60741448399E-01 -1.60792196567E-01 -1.60845544994E-01 -1.60901626816E-01
 -1.60960582000E-01 -1.61022557646E-01 -1.61087708380E-01 -1.61156196734E-01
 -1.61228193545E-01 -1.61303878386E-01 -1.61383439984E-01 -1.61467076727E-01
 -1.61554997113E-01 -1.61647420310E-01 -1.61744576651E-01 -1.61846708232E-01
 -1.61954069510E-01 -1.62066927904E-01 -1.62185564476E-01 -1.62310274625E-01
 -1.62441368802E-01 -1.62579173263E-01 -1.62724030904E-01 -1.62876302047E-01
 -1.63036365388E-01 -1.63204618864E-01 -1.63381480675E-01 -1.63567390247E-01
 -1.63762809376E-01 -1.63968223274E-01 -1.64184141816E-01 -1.64411100735E-01
 -1.64649662922E-01 -1.64900419820E-01 -1.65163992808E-01 -1.65441034745E-01
 -1.65732231491E-01 -1.66038303602E-01 -1.66360008023E-01 -1.66698139903E-01
 -1.67053534508E-01 -1.67427069189E-01 -1.67819665472E-01 -1.68232291234E-01
 -1.68665962998E-01 -1.69121748299E-01 -1.69600768232E-01 -1.70104200007E-01
 -1.70633279741E-01 -1.71189305302E-01 -1.71773639329E-01 -1.72387712313E-01
 -1.73033025944E-01 -1.73711156468E-01 -1.74423758306E-01 -1.75172567757E-01
 -1.75959406907E-01 -1.76786187673E-01 -1.77654916078E-01 -1.78567696604E-01
 -1.79526736841E-01 -1.80534352278E-01 -1.81592971242E-01 -1.82705140103E-01
 -1.83873528692E-01 -1.85100935827E-01 -1.86390295185E-01 -1.87744681291E-01
 -1.89167315750E-01 -1.90661573729E-01 -1.92230990643E-01 -1.93879269016E-01
 -1.95610285660E-01 -1.97428098995E-01 -1.99336956602E-01 -2.01341303026E-01
 -2.03445787759E-01 -2.05655273386E-01 -2.07974843996E-01 -2.10409813722E-01
 -2.12965735445E-01 -2.15648409653E-01 -2.18463893411E-01 -2.21418509463E-01
 -2.24518855346E-01 -2.27771812600E-01 -2.31184555935E-01 -2.34764562386E-01
 -2.38519620371E-01 -2.42457838579E-01 -2.46587654687E-01 -2.50917843781E-01
 -2.55457526440E-01 -2.60216176403E-01 -2.65203627672E-01 -2.70430081024E-01
 -2.75906109759E-01 -2.81642664636E-01 -2.87651077769E-01 -2.93943065402E-01
 -3.00530729413E-01 -3.07426557331E-01 -3.14643420746E-01 -3.22194571867E-01
 -3.30093638051E-01 -3.38354614082E-01 -3.46991852010E-01 -3.56020048206E-01
 -3.65454227515E-01 -3.75309724198E-01 -3.85602159366E-01 -3.96347414713E-01
 -4.07561602282E-01 -4.19261029912E-01 -4.31462162291E-01 -4.44181577223E-01
 -4.57435917039E-01 -4.71241834850E-01 -4.85615935660E-01 -5.00574712094E-01
 -5.16134474861E-01 -5.32311277936E-01 -5.49120838633E-01 -5.66578452811E-01
 -5.84698905626E-01 -6.03496378308E-01 -6.22984351730E-01 -6.43175507509E-01
 -6.64081627835E-01 -6.85713495293E-01 -7.08080794163E-01 -7.31192015005E-01
 -7.55054364637E-01 -7.79673683738E-01 -8.05054374723E-01 -8.31199342714E-01
 -8.58109952631E-01 -8.85786005725E-01 -9.14225738822E-01 -9.43425849751E-01
 -9.73381552173E-01 -1.00408666297E+00 -1.03553372475E+00 -1.06771416551E+00
 -1.10061849644E+00 -1.13423654780E+00 -1.16855774080E+00 -1.20357139194E+00
 -1.23926704301E+00 -1.27563480768E+00 -1.31266572148E+00 -1.35035207830E+00
 -1.38868773167E+00 -1.42766833447E+00 -1.46729148504E+00 -1.50755674267E+00
 -1.54846546985E+00 -1.59002045416E+00 -1.63222525877E+00 -1.67508324809E+00
 -1.71859623524E+00 -1.76276270028E+00 -1.80757553527E+00 -1.85301928296E+00
 -1.89906685313E+00 -1.94567572372E+00 -1.99278366480E+00 -2.04030406109E+00
 -2.08812095500E+00 -2.13608398440E+00 -2.18400344766E+00 -2.23164578926E+00
 -2.27872985983E+00 -2.32492435859E+00 -2.36984690902E+00 -2.41306524074E+00
 -2.45410094547E+00 -2.49243623182E+00 -2.52752401491E+00 -2.55880153551E+00
 -2.58570750417E+00 -2.60770251055E+00 -2.62429213200E+00 -2.63505183376E+00
 -2.63965239845E+00 -2.63788428756E+00 -2.62967906422E+00 -2.61512584003E+00
 -2.59448070018E+00 -2.56816725343E+00 -2.53676688001E+00 -2.50099792300E+00
 -2.46168396777E+00 -2.41971242737E+00 -2.37598580321E+00 -2.33136909185E+00
 -2.28663770266E+00 -2.24243077322E+00 -2.19921477333E+00 -2.15726167490E+00
 -2.11664471124E+00 -2.07725293332E+00 -2.03882357823E+00 -2.00098898015E+00
 -1.96333272375E+00 -1.92544832073E+00 -1.88699317666E+00 -1.84773117431E+00
 -1.80755881339E+00 -1.76651229528E+00 -1.72475582430E+00 -1.68255420421E+00
 -1.64023502187E+00 -1.59814692037E+00 -1.55662046979E+00 -1.51593699929E+00
 -1.47630876246E+00 -1.43787143868E+00 -1.40068774780E+00 -1.36475931178E+00
 -1.33004309107E+00 -1.29646878067E+00 -1.26395429309E+00 -1.23241757321E+00
 -1.20178415211E+00 -1.17199078506E+00 -1.14298609127E+00 -1.11472930599E+00
 -1.08718815353E+00 -1.06033658321E+00 -1.03415280307E+00 -1.00861778566E+00
 -9.83714245444E-01 -9.59425999329E-01 -9.35737597420E-01 -9.12634124441E-01
 -8.90101098659E-01 -8.68124421693E-01 -8.46690352688E-01 -8.25785493236E-01
 -8.05396776727E-01 -7.85511459450E-01 -7.66117112412E-01 -7.47201613510E-01
 -7.28753139940E-01 -7.10760160805E-01 -6.93211429908E-01 -6.76095978721E-01
 -6.59403109529E-01 -6.43122388746E-01 -6.27243640391E-01 -6.11756939730E-01
 -5.96652607071E-01 -5.81921201714E-01 -5.67553516051E-01 -5.53540569811E-01
 -5.39873604446E-01 -5.26544077659E-01 -5.13543658061E-01 -5.00864219966E-01
 -4.88497838313E-01 -4.76436783711E-01 -4.64673517608E-01 -4.53200687581E-01
 -4.42011122735E-01 -4.31097829231E-01 -4.20453985903E-01 -4.10072940003E-01
 -3.99948203039E-01 -3.90073446722E-01 -3.80442499007E-01 -3.71049340238E-01
 -3.61888099386E-01 -3.52953050376E-01 -3.44238608513E-01 -3.35739326985E-01
 -3.27449893466E-01 -3.19365126790E-01 -3.11479973715E-01 -3.03789505762E-01
 -2.96288916140E-01 -2.88973516736E-01 -2.81838735186E-01 -2.74880112020E-01
 -2.68093297873E-01 -2.61474050764E-01 -2.55018233448E-01 -2.48721810830E-01
 -2.42580847440E-01 -2.36591504977E-01 -2.30750039905E-01 -2.25052801121E-01
 -2.19496227663E-01 -2.14076846492E-01 -2.08791270320E-01 -2.03636195488E-01
 -1.98608399907E-01 -1.93704741041E-01 -1.88922153945E-01 -1.84257649344E-01
 -1.79708311772E-01 -1.75271297745E-01 -1.70943833985E-01 -1.66723215686E-01
 -1.62606804823E-01 -1.58592028508E-01 -1.54676377372E-01 -1.50857404008E-01
 -1.47132721432E-01 -1.43500001596E-01 -1.39956973933E-01 -1.36501423934E-01
 -1.33131191769E-01 -1.29844170932E-01 -1.26638306929E-01 -1.23511595991E-01
 -1.20462083820E-01 -1.17487864373E-01 -1.14587078666E-01 -1.11757913614E-01
 -1.08998600895E-01 -1.06307415850E-01 -1.03682676401E-01 -1.01122741999E-01
 -9.86260126033E-02
</PP_LOCAL>


<PP_NONLOCAL>
  <PP_BETA>
    1    0             Beta    L
   409
  2.60020559306E-04  2.66603003626E-04  2.73352088676E-04  2.80272025290E-04
  2.87367144380E-04  2.94641880931E-04  3.02100765986E-04  3.09748482694E-04
  3.17589802257E-04  3.25629623965E-04  3.33872975190E-04  3.42325011389E-04
  3.50991008097E-04  3.59876384944E-04  3.68986697647E-04  3.78327638014E-04
  3.87905041945E-04  3.97724905443E-04  4.07793360601E-04  4.18116699614E-04
  4.28701374780E-04  4.39553998500E-04  4.50681367293E-04  4.62090421768E-04
  4.73788294658E-04  4.85782302813E-04  4.98079947197E-04  5.10688896881E-04
  5.23617053081E-04  5.36872485118E-04  5.50463486451E-04  5.64398542659E-04
  5.78686363457E-04  5.93335882698E-04  6.08356258372E-04  6.23756880608E-04
  6.39547371674E-04  6.55737601986E-04  6.72337690107E-04  6.89358010752E-04
  7.06809202787E-04  7.24702177237E-04  7.43048117283E-04  7.61858494270E-04