<PP_INFO>
Generated using ld1 code
Author: P. Giannozzi/X. Gonze et al Generation date: 1992?
Info: In BHS for use as KB with l=2 local - core correction added
    1        The Pseudo was generated with a Scalar-Relativistic Calculation
  0.00000000000E+00    Local Potential cutoff radius
nl pn  l   occ               Rcut            Rcut US             E pseu
5S  0  0  1.25      0.00000000000      0.00000000000      0.00000000000
5P  0  1  0.50      0.00000000000      0.00000000000      0.00000000000
5D  0  2  0.25      0.00000000000      0.00000000000      0.00000000000
</PP_INFO>


<PP_HEADER>
   0                   Version Number
  In                   Element
   NC                  Norm - Conserving pseudopotential
    T                  Nonlinear Core Correction
 SLA  PZ   NOGX NOGC   PZ   Exchange-Correlation functional
    3.00000000000      Z valence
    0.00000000000      Total energy
  0.0000000  0.0000000 Suggested cutoff for wfc and rho
    1                  Max angular momentum component
  641                  Number of points in mesh
    3    2             Number of Wavefunctions, Number of Projectors
 Wavefunctions         nl  l   occ
                       5S  0  1.25
                       5P  1  0.50
                       5D  2  0.25
</PP_HEADER>


<PP_MESH>
  <PP_R>
  6.84617607964E-06  7.01948785223E-06  7.19718703323E-06  7.37938469041E-06
  7.56619470325E-06  7.75773383407E-06  7.95412180108E-06  8.15548135314E-06
  8.36193834653E-06  8.57362182359E-06  8.79066409338E-06  9.01320081440E-06
  9.24137107932E-06  9.47531750201E-06  9.71518630658E-06  9.96112741885E-06
  1.02132945600E-05  1.04718453428E-05  1.07369413697E-05  1.10087483346E-05
  1.12874361255E-05  1.15731789314E-05  1.18661553509E-05  1.21665485038E-05
  1.24745461455E-05  1.27903407847E-05  1.31141298032E-05  1.34461155797E-05
  1.37865056162E-05  1.41355126675E-05  1.44933548743E-05  1.48602558998E-05
  1.52364450689E-05  1.56221575122E-05  1.60176343125E-05  1.64231226556E-05
  1.68388759850E-05  1.72651541601E-05  1.77022236185E-05  1.81503575430E-05
  1.86098360317E-05  1.90809462738E-05  1.95639827284E-05  2.00592473092E-05
  2.05670495724E-05  2.10877069112E-05  2.16215447532E-05  2.21688967646E-05
  2.27301050581E-05  2.33055204071E-05  2.38955024651E-05  2.45004199900E-05
  2.51206510750E-05  2.57565833846E-05  2.64086143973E-05  2.70771516536E-05
  2.77626130112E-05  2.84654269056E-05  2.91860326185E-05  2.99248805519E-05
  3.06824325097E-05  3.14591619867E-05  3.22555544640E-05  3.30721077128E-05
  3.39093321056E-05  3.47677509347E-05  3.56479007400E-05  3.65503316437E-05
  3.74756076945E-05  3.84243072200E-05  3.93970231883E-05  4.03943635786E-05
  4.14169517611E-05  4.24654268867E-05  4.35404442865E-05  4.46426758813E-05
  4.57728106018E-05  4.69315548189E-05  4.81196327855E-05  4.93377870891E-05
  5.05867791156E-05  5.18673895259E-05  5.31804187430E-05  5.45266874530E-05
  5.59070371177E-05  5.73223305005E-05  5.87734522059E-05  6.02613092321E-05
  6.17868315383E-05  6.33509726255E-05  6.49547101329E-05  6.65990464485E-05
  6.82850093361E-05  7.00136525775E-05  7.17860566309E-05  7.36033293064E-05
  7.54666064588E-05  7.73770526969E-05  7.93358621118E-05  8.13442590230E-05
  8.34034987442E-05  8.55148683670E-05  8.76796875664E-05  8.98993094247E-05
  9.21751212778E-05  9.45085455823E-05  9.69010408043E-05  9.93541023312E-05
  1.01869263406E-04  1.04448096087E-04  1.07092212228E-04  1.09803264488E-04
  1.12582947362E-04  1.15432998244E-04  1.18355198507E-04  1.21351374622E-04
  1.24423399296E-04  1.27573192645E-04  1.30802723393E-04  1.34114010101E-04
  1.37509122430E-04  1.40990182438E-04  1.44559365899E-04  1.48218903670E-04
  1.51971083080E-04  1.55818249364E-04  1.59762807127E-04  1.63807221845E-04
  1.67954021409E-04  1.72205797703E-04  1.76565208227E-04  1.81034977754E-04
  1.85617900035E-04  1.90316839545E-04  1.95134733276E-04  2.00074592568E-04
  2.05139504993E-04  2.10332636286E-04  2.15657232324E-04  2.21116621152E-04
  2.26714215066E-04  2.32453512745E-04  2.38338101437E-04  2.44371659200E-04
  2.50557957205E-04  2.56900862090E-04  2.63404338377E-04  2.70072450950E-04
  2.76909367596E-04  2.83919361611E-04  2.91106814469E-04  2.98476218563E-04
  3.06032180010E-04  3.13779421531E-04  3.21722785405E-04  3.29867236493E-04
  3.38217865342E-04  3.46779891367E-04  3.55558666112E-04  3.64559676598E-04
  3.73788548750E-04  3.83251050912E-04  3.92953097457E-04  4.02900752479E-04
  4.13100233588E-04  4.23557915790E-04  4.34280335477E-04  4.45274194511E-04
  4.56546364412E-04  4.68103890652E-04  4.79953997061E-04  4.92104090343E-04
  5.04561764701E-04  5.17334806586E-04  5.30431199566E-04  5.43859129313E-04
  5.57626988720E-04  5.71743383147E-04  5.86217135801E-04  6.01057293247E-04
  6.16273131068E-04  6.31874159657E-04  6.47870130165E-04  6.64271040594E-04
  6.81087142047E-04  6.98328945136E-04  7.16007226548E-04  7.34133035784E-04
  7.52717702066E-04  7.71772841415E-04  7.91310363913E-04  8.11342481147E-04
  8.31881713844E-04  8.52940899692E-04  8.74533201368E-04  8.96672114763E-04
  9.19371477420E-04  9.42645477177E-04  9.66508661044E-04  9.90975944286E-04
  1.01606261975E-03  1.04178436743E-03  1.06815726425E-03  1.09519779414E-03
  1.12292285829E-03  1.15134978579E-03  1.18049634438E-03  1.21038075162E-03
  1.24102168623E-03  1.27243829979E-03  1.30465022871E-03  1.33767760649E-03
  1.37154107632E-03  1.40626180397E-03  1.44186149103E-03  1.47836238845E-03
  1.51578731050E-03  1.55415964895E-03  1.59350338778E-03  1.63384311810E-03
  1.67520405355E-03  1.71761204607E-03  1.76109360203E-03  1.80567589882E-03
  1.85138680182E-03  1.89825488185E-03  1.94630943297E-03  1.99558049084E-03
  2.04609885149E-03  2.09789609052E-03  2.15100458290E-03  2.20545752316E-03
  2.26128894617E-03  2.31853374838E-03  2.37722770966E-03  2.43740751565E-03
  2.49911078067E-03  2.56237607129E-03  2.62724293036E-03  2.69375190179E-03
  2.76194455585E-03  2.83186351516E-03  2.90355248136E-03  2.97705626237E-03
  3.05242080046E-03  3.12969320092E-03  3.20892176150E-03  3.29015600265E-03
  3.37344669840E-03  3.45884590815E-03  3.54640700919E-03  3.63618473006E-03
  3.72823518475E-03  3.82261590780E-03  3.91938589022E-03  4.01860561641E-03
  4.12033710193E-03  4.22464393227E-03  4.33159130259E-03  4.44124605847E-03
  4.55367673772E-03  4.66895361317E-03  4.78714873661E-03  4.90833598384E-03
  5.03259110085E-03  5.15999175112E-03  5.29061756420E-03  5.42455018549E-03
  5.56187332722E-03  5.70267282085E-03  5.84703667062E-03  5.99505510864E-03
  6.14682065127E-03  6.30242815690E-03  6.46197488529E-03  6.62556055833E-03
  6.79328742241E-03  6.96526031227E-03  7.14158671655E-03  7.32237684502E-03
  7.50774369738E-03  7.69780313394E-03  7.89267394805E-03  8.09247794031E-03
  8.29733999471E-03  8.50738815670E-03  8.72275371324E-03  8.94357127479E-03
  9.16997885954E-03  9.40211797957E-03  9.64013372941E-03  9.88417487664E-03
  1.01343939549E-02  1.03909473593E-02  1.06539954441E-02  1.09237026228E-02
  1.12002374713E-02  1.14837728328E-02  1.17744859261E-02  1.20725584565E-02
  1.23781767288E-02  1.26915317646E-02  1.30128194209E-02  1.33422405129E-02
  1.36800009395E-02  1.40263118121E-02  1.43813895861E-02  1.47454561968E-02
  1.51187391976E-02  1.55014719026E-02  1.58938935321E-02  1.62962493624E-02
  1.67087908791E-02  1.71317759341E-02  1.75654689066E-02  1.80101408691E-02
  1.84660697558E-02  1.89335405373E-02  1.94128453980E-02  1.99042839189E-02
  2.04081632653E-02  2.09247983780E-02  2.14545121709E-02  2.19976357323E-02
  2.25545085322E-02  2.31254786340E-02  2.37109029128E-02  2.43111472778E-02
  2.49265869012E-02  2.55576064529E-02  2.62046003406E-02  2.68679729565E-02
  2.75481389301E-02  2.82455233874E-02  2.89605622162E-02  2.96937023391E-02
  3.04454019927E-02  3.12161310135E-02  3.20063711325E-02  3.28166162752E-02
  3.36473728714E-02  3.44991601710E-02  3.53725105687E-02  3.62679699370E-02
  3.71860979672E-02  3.81274685190E-02  3.90926699799E-02  4.00823056320E-02
  4.10969940300E-02  4.21373693871E-02  4.32040819717E-02  4.42977985139E-02
  4.54192026223E-02  4.65689952108E-02  4.77478949373E-02  4.89566386524E-02
  5.01959818603E-02  5.14666991910E-02  5.27695848840E-02  5.41054532854E-02
  5.54751393563E-02  5.68794991952E-02  5.83194105727E-02  5.97957734803E-02
  6.13095106928E-02  6.28615683453E-02  6.44529165243E-02  6.60845498742E-02
  6.77574882191E-02  6.94727771998E-02  7.12314889278E-02  7.30347226551E-02
  7.48836054616E-02  7.67792929592E-02  7.87229700142E-02  8.07158514882E-02
  8.27591829968E-02  8.48542416889E-02  8.70023370443E-02  8.92048116924E-02
  9.14630422518E-02  9.37784401899E-02  9.61524527059E-02  9.85865636349E-02
  1.01082294375E-01  1.03641204840E-01  1.06264894432E-01  1.08955003042E-01
  1.11713212076E-01  1.14541245504E-01  1.17440870939E-01  1.20413900741E-01
  1.23462193151E-01  1.26587653451E-01  1.29792235155E-01  1.33077941231E-01
  1.36446825353E-01  1.39900993182E-01  1.43442603685E-01  1.47073870486E-01
  1.50797063243E-01  1.54614509074E-01  1.58528594006E-01  1.62541764470E-01
  1.66656528828E-01  1.70875458941E-01  1.75201191779E-01  1.79636431065E-01
  1.84183948968E-01  1.88846587835E-01  1.93627261967E-01  1.98528959440E-01
  2.03554743976E-01  2.08707756853E-01  2.13991218872E-01  2.19408432369E-01
  2.24962783278E-01  2.30657743251E-01  2.36496871821E-01  2.42483818635E-01
  2.48622325729E-01  2.54916229870E-01  2.61369464952E-01  2.67986064459E-01
  2.74770163980E-01  2.81726003797E-01  2.88857931538E-01  2.96170404890E-01
  3.03667994385E-01  3.11355386262E-01  3.19237385392E-01  3.27318918279E-01
  3.35605036145E-01  3.44100918083E-01  3.52811874297E-01  3.61743349418E-01
  3.70900925907E-01  3.80290327549E-01  3.89917423025E-01  3.99788229584E-01
  4.09908916800E-01  4.20285810433E-01  4.30925396378E-01  4.41834324725E-01
  4.53019413907E-01  4.64487654970E-01  4.76246215938E-01  4.88302446293E-01
  5.00663881574E-01  5.13338248078E-01  5.26333467698E-01  5.39657662869E-01
  5.53319161646E-01  5.67326502912E-01  5.81688441710E-01  5.96413954719E-01
  6.11512245865E-01  6.26992752071E-01  6.42865149158E-01  6.59139357890E-01
  6.75825550177E-01  6.92934155434E-01  7.10475867094E-01  7.28461649299E-01
  7.46902743749E-01  7.65810676727E-01  7.85197266307E-01  8.05074629739E-01
  8.25455191022E-01  8.46351688670E-01  8.67777183675E-01  8.89745067668E-01
  9.12269071292E-01  9.35363272782E-01  9.59042106767E-01  9.83320373288E-01
  1.00821324705E+00  1.03373628692E+00  1.05990544561E+00  1.08673707971E+00
  1.11424795986E+00  1.14245528126E+00  1.17137667440E+00  1.20103021609E+00
  1.23143444076E+00  1.26260835205E+00  1.29457143466E+00  1.32734366655E+00
  1.36094553145E+00  1.39539803160E+00  1.43072270095E+00  1.46694161856E+00
  1.50407742244E+00  1.54215332367E+00  1.58119312092E+00  1.62122121535E+00
  1.66226262582E+00  1.70434300453E+00  1.74748865311E+00  1.79172653897E+00
  1.83708431226E+00  1.88359032303E+00  1.93127363908E+00  1.98016406402E+00
  2.03029215596E+00  2.08168924659E+00  2.13438746076E+00  2.18841973657E+00
  2.24381984596E+00  2.30062241580E+00  2.35886294953E+00  2.41857784940E+00
  2.47980443916E+00  2.54258098741E+00  2.60694673155E+00  2.67294190226E+00
  2.74060774867E+00  2.80998656414E+00  2.88112171268E+00  2.95405765609E+00
  3.02883998169E+00  3.10551543087E+00  3.18413192829E+00  3.26473861182E+00
  3.34738586326E+00  3.43212533983E+00  3.51901000647E+00  3.60809416891E+00
  3.69943350766E+00  3.79308511277E+00  3.88910751956E+00  3.98756074515E+00
  4.08850632602E+00  4.19200735642E+00  4.29812852789E+00  4.40693616960E+00
  4.51849828988E+00  4.63288461868E+00  4.75016665118E+00  4.87041769246E+00
  4.99371290335E+00  5.12012934736E+00  5.24974603889E+00  5.38264399259E+00
  5.51890627400E+00  5.65861805149E+00  5.80186664947E+00  5.94874160297E+00
  6.09933471361E+00  6.25374010701E+00  6.41205429154E+00  6.57437621874E+00
  6.74080734509E+00  6.91145169547E+00  7.08641592814E+00  7.26580940144E+00
  7.44974424215E+00  7.63833541552E+00  7.83170079717E+00  8.02996124676E+00
  8.23324068353E+00  8.44166616374E+00  8.65536796010E+00  8.87447964319E+00
  9.09913816495E+00  9.32948394426E+00  9.56566095474E+00  9.80781681471E+00
  1.00561028795E+01  1.03106743359E+01  1.05716902994E+01  1.08393139134E+01
  1.11137124515E+01  1.13950574217E+01  1.16835246737E+01  1.19792945090E+01
  1.22825517933E+01  1.25934860723E+01  1.29122916900E+01  1.32391679104E+01
  1.35743190417E+01  1.39179545643E+01  1.42702892615E+01  1.46315433541E+01
  1.50019426376E+01  1.53817186236E+01  1.57711086844E+01  1.61703562015E+01
  1.65797107177E+01  1.69994280928E+01  1.74297706638E+01  1.78710074089E+01
  1.83234141153E+01  1.87872735521E+01  1.92628756464E+01  1.97505176650E+01
  2.02505044001E+01  2.07631483597E+01  2.12887699629E+01  2.18276977403E+01
  2.23802685394E+01  2.29468277348E+01  2.35277294446E+01  2.41233367511E+01
  2.47340219284E+01  2.53601666746E+01  2.60021623505E+01  2.66604102243E+01
  2.73353217223E+01  2.80273186863E+01  2.87368336368E+01  2.94643100438E+01
  3.02102026038E+01  3.09749775237E+01  3.17591128130E+01  3.25630985816E+01
  3.33874373469E+01  3.42326443473E+01  3.50992478648E+01  3.59877895548E+01
  3.68988247848E+01  3.78329229815E+01  3.87906679865E+01  3.97726584218E+01
  4.07795080633E+01  4.18118462249E+01  4.28703181514E+01  4.39555854224E+01
  4.50683263650E+01  4.62092364788E+01  4.73790288696E+01  4.85784346958E+01
  4.98082036250E+01  5.10691043029E+01  5.23619248334E+01  5.36874732714E+01
  5.50465781279E+01  5.64400888877E+01  5.78688765403E+01  5.93338341245E+01
  6.08358772866E+01
  </PP_R>
  <PP_RAB>
  1.71154401991E-07  1.75487196306E-07  1.79929675831E-07  1.84484617260E-07
  1.89154867581E-07  1.93943345852E-07  1.98853045027E-07  2.03887033828E-07
  2.09048458663E-07  2.14340545590E-07  2.19766602335E-07  2.25330020360E-07
  2.31034276983E-07  2.36882937550E-07  2.42879657664E-07  2.49028185471E-07
  2.55332364000E-07  2.61796133569E-07  2.68423534243E-07  2.75218708364E-07
  2.82185903137E-07  2.89329473285E-07  2.96653883772E-07  3.04163712594E-07
  3.11863653638E-07  3.19758519617E-07  3.27853245079E-07  3.36152889493E-07
  3.44662640405E-07  3.53387816687E-07  3.62333871858E-07  3.71506397495E-07
  3.80911126723E-07  3.90553937805E-07  4.00440857812E-07  4.10578066390E-07
  4.20971899625E-07  4.31628854002E-07  4.42555590463E-07  4.53758938574E-07
  4.65245900793E-07  4.77023656845E-07  4.89099568211E-07  5.01481182729E-07
  5.14176239310E-07  5.27192672779E-07  5.40538618830E-07  5.54222419114E-07
  5.68252626451E-07  5.82638010178E-07  5.97387561628E-07  6.12510499751E-07
  6.28016276874E-07  6.43914584615E-07  6.60215359932E-07  6.76928791340E-07
  6.94065325280E-07  7.11635672641E-07  7.29650815463E-07  7.48122013797E-07
  7.67060812744E-07  7.86479049668E-07  8.06388861600E-07  8.26802692821E-07
  8.47733302640E-07  8.69193773369E-07  8.91197518501E-07  9.13758291092E-07
  9.36890192362E-07  9.60607680499E-07  9.84925579708E-07  1.00985908947E-06
  1.03542379403E-06  1.06163567217E-06  1.08851110716E-06  1.11606689703E-06
  1.14432026504E-06  1.17328887047E-06  1.20299081964E-06  1.23344467723E-06
  1.26466947789E-06  1.29668473815E-06  1.32951046858E-06  1.36316718633E-06
  1.39767592794E-06  1.43305826251E-06  1.46933630515E-06  1.50653273080E-06
  1.54467078846E-06  1.58377431564E-06  1.62386775332E-06  1.66497616121E-06
  1.70712523340E-06  1.75034131444E-06  1.79465141577E-06  1.84008323266E-06
  1.88666516147E-06  1.93442631742E-06  1.98339655279E-06  2.03360647558E-06
  2.08508746860E-06  2.13787170918E-06  2.19199218916E-06  2.24748273562E-06
  2.30437803195E-06  2.36271363956E-06  2.42252602011E-06  2.48385255828E-06
  2.54673158516E-06  2.61120240218E-06  2.67730530570E-06  2.74508161220E-06
  2.81457368406E-06  2.88582495610E-06  2.95887996267E-06  3.03378436555E-06
  3.11058498241E-06  3.18932981614E-06  3.27006808482E-06  3.35285025252E-06
  3.43772806076E-06  3.52475456095E-06  3.61398414748E-06  3.70547259174E-06
  3.79927707700E-06  3.89545623411E-06  3.99407017818E-06  4.09518054612E-06
  4.19885053521E-06  4.30514494258E-06  4.41413020567E-06  4.52587444384E-06
  4.64044750087E-06  4.75792098864E-06  4.87836833191E-06  5.00186481419E-06
  5.12848762481E-06  5.25831590714E-06  5.39143080809E-06  5.52791552879E-06
  5.66785537665E-06  5.81133781863E-06  5.95845253592E-06  6.10929148000E-06
  6.26394893014E-06  6.42252155226E-06  6.58510845943E-06  6.75181127375E-06
  6.92273418990E-06  7.09798404027E-06  7.27767036173E-06  7.46190546408E-06
  7.65080450024E-06  7.84448553828E-06  8.04306963513E-06  8.24668091233E-06
  8.45544663355E-06  8.66949728417E-06  8.88896665280E-06  9.11399191496E-06
  9.34471371874E-06  9.58127627280E-06  9.82382743642E-06  1.00725188120E-05
  1.03275058397E-05  1.05889478947E-05  1.08570083869E-05  1.11318548628E-05
  1.14136591103E-05  1.17025972663E-05  1.19988499265E-05  1.23026022586E-05
  1.26140441175E-05  1.29333701647E-05  1.32607799892E-05  1.35964782328E-05
  1.39406747180E-05  1.42935845787E-05  1.46554283950E-05  1.50264323312E-05
  1.54068282767E-05  1.57968539914E-05  1.61967532541E-05  1.66067760148E-05
  1.70271785512E-05  1.74582236284E-05  1.79001806637E-05  1.83533258946E-05
  1.88179425517E-05  1.92943210354E-05  1.97827590978E-05  2.02835620287E-05
  2.07970428461E-05  2.13235224923E-05  2.18633300342E-05  2.24168028691E-05
  2.29842869355E-05  2.35661369294E-05  2.41627165261E-05  2.47743986071E-05
  2.54015654938E-05  2.60446091858E-05  2.67039316063E-05  2.73799448534E-05
  2.80730714574E-05  2.87837446448E-05  2.95124086096E-05  3.02595187905E-05
  3.10255421557E-05  3.18109574947E-05  3.26162557177E-05  3.34419401623E-05
  3.42885269080E-05  3.51565450993E-05  3.60465372757E-05  3.69590597114E-05
  3.78946827624E-05  3.88539912238E-05  3.98375846945E-05  4.08460779524E-05
  4.18801013387E-05  4.29403011517E-05  4.40273400507E-05  4.51418974705E-05
  4.62846700456E-05  4.74563720463E-05  4.86577358243E-05  4.98895122711E-05
  5.11524712871E-05  5.24474022629E-05  5.37751145724E-05  5.51364380790E-05
  5.65322236543E-05  5.79633437096E-05  5.94306927416E-05  6.09351878912E-05
  6.24777695168E-05  6.40594017822E-05  6.56810732591E-05  6.73437975448E-05
  6.90486138962E-05  7.07965878791E-05  7.25888120339E-05  7.44264065593E-05
  7.63105200115E-05  7.82423300229E-05  8.02230440376E-05  8.22539000662E-05
  8.43361674600E-05  8.64711477038E-05  8.86601752298E-05  9.09046182515E-05
  9.32058796187E-05  9.55653976949E-05  9.79846472555E-05  1.00465140410E-04
  1.03008427548E-04  1.05616098307E-04  1.08289782565E-04  1.11031151462E-04
  1.13841918443E-04  1.16723840329E-04  1.19678718415E-04  1.22708399596E-04
  1.25814777521E-04  1.28999793778E-04  1.32265439105E-04  1.35613754637E-04
  1.39046833181E-04  1.42566820521E-04  1.46175916765E-04  1.49876377716E-04
  1.53670516282E-04  1.57560703922E-04  1.61549372132E-04  1.65639013958E-04
  1.69832185560E-04  1.74131507807E-04  1.78539667914E-04  1.83059421125E-04
  1.87693592434E-04  1.92445078349E-04  1.97316848701E-04  2.02311948508E-04
  2.07433499868E-04  2.12684703918E-04  2.18068842831E-04  2.23589281870E-04
  2.29249471488E-04  2.35052949489E-04  2.41003343235E-04  2.47104371916E-04
  2.53359848873E-04  2.59773683983E-04  2.66349886103E-04  2.73092565571E-04
  2.80005936783E-04  2.87094320820E-04  2.94362148153E-04  3.01813961412E-04
  3.09454418221E-04  3.17288294115E-04  3.25320485521E-04  3.33556012821E-04
  3.42000023488E-04  3.50657795302E-04  3.59534739652E-04  3.68636404919E-04
  3.77968479940E-04  3.87536797564E-04  3.97347338302E-04  4.07406234061E-04
  4.17719771979E-04  4.28294398352E-04  4.39136722666E-04  4.50253521727E-04
  4.61651743896E-04  4.73338513433E-04  4.85321134949E-04  4.97607097974E-04
  5.10204081633E-04  5.23119959451E-04  5.36362804273E-04  5.49940893308E-04
  5.63862713304E-04  5.78136965850E-04  5.92772572821E-04  6.07778681945E-04
  6.23164672531E-04  6.38940161322E-04  6.55115008514E-04  6.71699323912E-04
  6.88703473253E-04  7.06138084684E-04  7.24014055405E-04  7.42342558479E-04
  7.61135049817E-04  7.80403275338E-04  8.00159278311E-04  8.20415406881E-04
  8.41184321786E-04  8.62479004275E-04  8.84312764218E-04  9.06699248426E-04
  9.29652449179E-04  9.53186712976E-04  9.77316749497E-04  1.00205764080E-03
  1.02742485075E-03  1.05343423468E-03  1.08010204929E-03  1.10744496285E-03
  1.13548006556E-03  1.16422488027E-03  1.19369737343E-03  1.22391596631E-03
  1.25489954651E-03  1.28666747977E-03  1.31923962210E-03  1.35263633213E-03
  1.38687848391E-03  1.42198747988E-03  1.45798526432E-03  1.49489433701E-03
  1.53273776732E-03  1.57153920863E-03  1.61132291311E-03  1.65211374686E-03
  1.69393720548E-03  1.73681943000E-03  1.78078722319E-03  1.82586806638E-03
  1.87209013654E-03  1.91948232398E-03  1.96807425036E-03  2.01789628720E-03
  2.06897957492E-03  2.12135604222E-03  2.17505842611E-03  2.23012029231E-03
  2.28657605629E-03  2.34446100475E-03  2.40381131765E-03  2.46466409087E-03
  2.52705735939E-03  2.59103012101E-03  2.65662236081E-03  2.72387507606E-03
  2.79283030190E-03  2.86353113760E-03  2.93602177347E-03  3.01034751853E-03
  3.08655482878E-03  3.16469133628E-03  3.24480587888E-03  3.32694853078E-03
  3.41117063382E-03  3.49752482954E-03  3.58606509214E-03  3.67684676215E-03
  3.76992658109E-03  3.86536272686E-03  3.96321485016E-03  4.06354411175E-03
  4.16641322070E-03  4.27188647353E-03  4.38002979448E-03  4.49091077663E-03
  4.60459872420E-03  4.72116469587E-03  4.84068154916E-03  4.96322398600E-03
  5.08886859940E-03  5.21769392132E-03  5.34978047180E-03  5.48521080922E-03
  5.62406958196E-03  5.76644358127E-03  5.91242179552E-03  6.06209546587E-03
  6.21555814322E-03  6.37290574674E-03  6.53423662381E-03  6.69965161147E-03
  6.86925409949E-03  7.04315009493E-03  7.22144828846E-03  7.40426012224E-03
  7.59169985963E-03  7.78388465656E-03  7.98093463479E-03  8.18297295697E-03
  8.39012590362E-03  8.60252295209E-03  8.82029685743E-03  9.04358373544E-03
  9.27252314768E-03  9.50725818872E-03  9.74793557563E-03  9.99470573959E-03
  1.02477229200E-02  1.05071452608E-02  1.07731349095E-02  1.10458581181E-02
  1.13254853477E-02  1.16121913742E-02  1.19061553984E-02  1.22075611573E-02
  1.25165970393E-02  1.28334562019E-02  1.31583366924E-02  1.34914415717E-02
  1.38329790412E-02  1.41831625728E-02  1.45422110427E-02  1.49103488680E-02
  1.52878061466E-02  1.56748188018E-02  1.60716287290E-02  1.64784839473E-02
  1.68956387544E-02  1.73233538858E-02  1.77618966773E-02  1.82115412325E-02
  1.86725685937E-02  1.91452669182E-02  1.96299316577E-02  2.01268657435E-02
  2.06363797755E-02  2.11587922168E-02  2.16944295919E-02  2.22436266917E-02
  2.28067267823E-02  2.33840818196E-02  2.39760526692E-02  2.45830093322E-02
  2.52053311763E-02  2.58434071729E-02  2.64976361402E-02  2.71684269927E-02
  2.78561989965E-02  2.85613820315E-02  2.92844168599E-02  3.00257554022E-02
  3.07858610191E-02  3.15652088012E-02  3.23642858664E-02  3.31835916638E-02
  3.40236382862E-02  3.48849507901E-02  3.57680675238E-02  3.66735404641E-02
  3.76019355610E-02  3.85538330917E-02  3.95298280231E-02  4.05305303838E-02
  4.15565656454E-02  4.26085751133E-02  4.36872163277E-02  4.47931634744E-02
  4.59271078064E-02  4.70897580758E-02  4.82818409770E-02  4.95041016005E-02
  5.07573038989E-02  5.20422311646E-02  5.33596865189E-02  5.47104934143E-02
  5.60954961490E-02  5.75155603949E-02  5.89715737384E-02  6.04644462351E-02
  6.19951109789E-02  6.35645246853E-02  6.51736682888E-02  6.68235475565E-02
  6.85151937168E-02  7.02496641035E-02  7.20280428171E-02  7.38514414021E-02
  7.57209995421E-02  7.76378857718E-02  7.96032982073E-02  8.16184652956E-02
  8.36846465816E-02  8.58031334958E-02  8.79752501617E-02  9.02023542227E-02
  9.24858376914E-02  9.48271278194E-02  9.72276879891E-02  9.96890186289E-02
  1.02212658150E-01  1.04800183911E-01  1.07453213197E-01  1.10173404240E-01
  1.12962457247E-01  1.15822115467E-01  1.18754166279E-01  1.21760442312E-01
  1.24842822584E-01  1.28003233684E-01  1.31243650972E-01  1.34566099815E-01
  1.37972656850E-01  1.41465451287E-01  1.45046666237E-01  1.48718540074E-01
  1.52483367840E-01  1.56343502675E-01  1.60301357289E-01  1.64359405469E-01
  1.68520183627E-01  1.72786292387E-01  1.77160398203E-01  1.81645235036E-01
  1.86243606054E-01  1.90958385388E-01  1.95792519929E-01  2.00749031169E-01
  2.05831017088E-01  2.11041654093E-01  2.16384199002E-01  2.21861991080E-01
  2.27478454124E-01  2.33237098607E-01  2.39141523869E-01  2.45195420368E-01
  2.51402571986E-01  2.57766858396E-01  2.64292257484E-01  2.70982847836E-01
  2.77842811289E-01  2.84876435543E-01  2.92088116844E-01  2.99482362725E-01
  3.07063794833E-01  3.14837151808E-01  3.22807292251E-01  3.30979197761E-01
  3.39357976043E-01  3.47948864107E-01  3.56757231539E-01  3.65788583853E-01
  3.75048565940E-01  3.84542965589E-01  3.94277717110E-01  4.04258905039E-01
  4.14492767943E-01  4.24985702320E-01  4.35744266595E-01  4.46775185222E-01
  4.58085352883E-01  4.69681838802E-01  4.81571891159E-01  4.93762941625E-01
  5.06262610003E-01  5.19078708992E-01  5.32219249072E-01  5.45692443507E-01
  5.59506713484E-01  5.73670693370E-01  5.88193236114E-01  6.03083418778E-01
  6.18350548210E-01  6.34004166865E-01  6.50054058762E-01  6.66510255607E-01
  6.83383043058E-01  7.00682967158E-01  7.18420840921E-01  7.36607751096E-01
  7.55255065094E-01  7.74374438094E-01  7.93977820325E-01  8.14077464540E-01
  8.34685933671E-01  8.55816108682E-01  8.77481196620E-01  8.99694738871E-01
  9.22470619620E-01  9.45823074536E-01  9.69766699663E-01  9.94316460546E-01
  1.01948770158E+00  1.04529615562E+00  1.07175795379E+00  1.09888963556E+00
  1.12670815913E+00  1.15523091197E+00  1.18447572174E+00  1.21446086739E+00
  1.24520509062E+00  1.27672760757E+00  1.30904812083E+00  1.34218683179E+00
  1.37616445320E+00  1.41100222219E+00  1.44672191351E+00  1.48334585311E+00
  1.52089693216E+00
  </PP_RAB>
</PP_MESH>


<PP_NLCC>
  2.17546000000E-01  2.17546000000E-01  2.17546000000E-01  2.17546000000E-01
  2.17546000000E-01  2.17546000000E-01  2.17546000000E-01  2.17546000000E-01
  2.17546000000E-01  2.17546000000E-01  2.17546000000E-01  2.17546000000E-01
  2.17546000000E-01  2.17546000000E-01  2.17546000000E-01  2.17546000000E-01
  2.17546000000E-01  2.17546000000E-01  2.17546000000E-01  2.17546000000E-01
  2.17546000000E-01  2.17546000000E-01  2.17546000000E-01  2.17546000000E-01
  2.17546000000E-01  2.17546000000E-01  2.17546000000E-01  2.17546000000E-01
  2.17546000000E-01  2.17546000000E-01  2.17546000000E-01  2.17546000000E-01
  2.17546000000E-01  2.17546000001E-01  2.17546000001E-01  2.17546000001E-01
  2.17546000001E-01  2.17546000001E-01  2.17546000001E-01  2.17546000001E-01
  2.17546000001E-01  2.17546000001E-01  2.17546000001E-01  2.17546000001E-01
  2.17546000001E-01  2.17546000001E-01  2.17546000001E-01  2.17546000001E-01
  2.17546000001E-01  2.17546000001E-01  2.17546000001E-01  2.17546000001E-01
  2.17546000001E-01  2.17546000001E-01  2.17546000001E-01  2.17546000002E-01
  2.17546000002E-01  2.17546000002E-01  2.17546000002E-01  2.17546000002E-01
  2.17546000002E-01  2.17546000002E-01  2.17546000002E-01  2.17546000002E-01
  2.17546000002E-01  2.17546000002E-01  2.17546000003E-01  2.17546000003E-01
  2.17546000003E-01  2.17546000003E-01  2.17546000003E-01  2.17546000003E-01
  2.17546000004E-01  2.17546000004E-01  2.17546000004E-01  2.17546000004E-01
  2.17546000004E-01  2.17546000005E-01  2.17546000005E-01  2.17546000005E-01
  2.17546000005E-01  2.17546000006E-01  2.17546000006E-01  2.17546000006E-01
  2.17546000006E-01  2.17546000007E-01  2.17546000007E-01  2.17546000007E-01
  2.17546000008E-01  2.17546000008E-01  2.17546000009E-01  2.17546000009E-01
  2.17546000010E-01  2.17546000010E-01  2.17546000011E-01  2.17546000011E-01
  2.17546000012E-01  2.17546000012E-01  2.17546000013E-01  2.17546000014E-01
  2.17546000014E-01  2.17546000015E-01  2.17546000016E-01  2.17546000017E-01
  2.17546000018E-01  2.17546000018E-01  2.17546000019E-01  2.17546000020E-01
  2.17546000021E-01  2.17546000022E-01  2.17546000024E-01  2.17546000025E-01
  2.17546000026E-01  2.17546000027E-01  2.17546000029E-01  2.17546000030E-01
  2.17546000032E-01  2.17546000034E-01  2.17546000035E-01  2.17546000037E-01
  2.17546000039E-01  2.17546000041E-01  2.17546000043E-01  2.17546000045E-01
  2.17546000048E-01  2.17546000050E-01  2.17546000053E-01  2.17546000055E-01
  2.17546000058E-01  2.17546000061E-01  2.17546000064E-01  2.17546000068E-01
  2.17546000071E-01  2.17546000075E-01  2.17546000078E-01  2.17546000082E-01
  2.17546000087E-01  2.17546000091E-01  2.17546000096E-01  2.17546000101E-01
  2.17546000106E-01  2.17546000111E-01  2.17546000117E-01  2.17546000123E-01
  2.17546000129E-01  2.17546000136E-01  2.17546000143E-01  2.17546000150E-01
  2.17546000158E-01  2.17546000166E-01  2.17546000175E-01  2.17546000184E-01
  2.17546000193E-01  2.17546000203E-01  2.17546000213E-01  2.17546000224E-01
  2.17546000236E-01  2.17546000248E-01  2.17546000261E-01  2.17546000274E-01
  2.17546000288E-01  2.17546000303E-01  2.17546000318E-01  2.17546000335E-01
  2.17546000352E-01  2.17546000370E-01  2.17546000389E-01  2.17546000409E-01
  2.17546000430E-01  2.17546000452E-01  2.17546000475E-01  2.17546000499E-01
  2.17546000525E-01  2.17546000552E-01  2.17546000580E-01  2.17546000610E-01
  2.17546000641E-01  2.17546000674E-01  2.17546000708E-01  2.17546000745E-01
  2.17546000783E-01  2.17546000823E-01  2.17546000865E-01  2.17546000909E-01
  2.17546000956E-01  2.17546001005E-01  2.17546001056E-01  2.17546001111E-01
  2.17546001168E-01  2.17546001227E-01  2.17546001290E-01  2.17546001357E-01
  2.17546001426E-01  2.17546001499E-01  2.17546001576E-01  2.17546001657E-01
  2.17546001742E-01  2.17546001831E-01  2.17546001925E-01  2.17546002024E-01
  2.17546002127E-01  2.17546002237E-01  2.17546002351E-01  2.17546002472E-01