<UPF version="2.0.1">
<PP_INFO>
Generated by new atomic code, or converted to UPF format
Author:
Generation date:
Pseudopotential type: NC
Element: Al
Functional:  SLA  PZ   NOGX NOGC
Suggested minimum cutoff for wavefunctions:   0. Ry
Suggested minimum cutoff for charge density:   0. Ry
The Pseudo was generated with a Non-Relativistic Calculation
L component and cutoff radius for Local Potential:  0   0.0000
Valence configuration:
nl pn  l   occ       Rcut    Rcut US       E pseu
3S  0  0  2.00      0.000      0.000     0.000000
3P  0  1  1.00      0.000      0.000     0.000000
Generation configuration: not available.
</PP_INFO>
<!--
END OF HUMAN READABLE SECTION
-->
<PP_HEADER generated="Generated by new atomic code, or converted to UPF format" author="" date="" comment="" element="Al" pseudo_type="NC" relativistic="no" is_ultrasoft="false" is_paw="false" is_coulomb="false" has_so="false" has_wfc="false" has_gipaw="false" paw_as_gipaw="false" core_correction="false" functional=" PZ" z_valence="3.000000000000e0" total_psenergy="0.000000000000e0" wfc_cutoff="0.000000000000e0" rho_cutoff="0.000000000000e0" l_max="1" l_max_rho="0" l_local="0" mesh_size="171" number_of_wfc="2" number_of_proj="2"/>
<PP_MESH dx="6.250000000002e-2" mesh="171" xmin="-4.000000000002e0" rmax="5.797724711960e1" zmesh="1.300000000000e1">
<PP_R>
1.408895299130000e-3 1.499761239120000e-3 1.596487528750000e-3 1.699452128080000e-3
1.809057373540000e-3 1.925731550000000e-3 2.049930564340000e-3 2.182139726900000e-3
2.322875647870000e-3 2.472688255910000e-3 2.632162947049999e-3 2.801922872100000e-3
2.982631371670000e-3 3.174994568140000e-3 3.379764124880000e-3 3.597740183380000e-3
3.829774489840000e-3 4.076773723340001e-3 4.339703038750001e-3 4.619589838100000e-3
4.917527785130000e-3 5.234681078850000e-3 5.572289002630000e-3 5.931670766790001e-3
6.314230663379999e-3 6.721463553489999e-3 7.154960708510000e-3 7.616416027990001e-3
8.107632658600000e-3 8.630530040029999e-3 9.187151405130001e-3 9.779671764000000e-3
1.041040640280000e-2 1.108181993090000e-2 1.179653591110000e-2 1.255734711180000e-2
1.336722641930000e-2 1.422933845440000e-2 1.514705193880000e-2 1.612395285780000e-2
1.716385847300000e-2 1.827083223810000e-2 1.944919967730000e-2 2.070356528690000e-2
2.203883052770000e-2 2.346021297780000e-2 2.497326671990000e-2 2.658390404440000e-2
2.829841855160000e-2 3.012350974440000e-2 3.206630920600000e-2 3.413440846780000e-2
3.633588867240000e-2 3.867935215160000e-2 4.117395603989999e-2 4.382944805620000e-2
4.665620459330000e-2 4.966527126370001e-2 5.286840606080000e-2 5.627812530360000e-2
5.990775254400001e-2 6.377147062930000e-2 6.788437712189999e-2 7.226254329330000e-2
7.692307692310001e-2 8.188418914749999e-2 8.716526562049999e-2 9.278694226320001e-2
9.877118589909999e-2 1.051413800900000e-1 1.119224165090000e-1 1.191407922030000e-1
1.268247131310000e-1 1.350042043820000e-1 1.437112274950000e-1 1.529798053520000e-1
1.628461551240000e-1 1.733488297860000e-1 1.845288687670000e-1 1.964299583130000e-1
2.090986021890000e-1 2.225843033980000e-1 2.369397576090000e-1 2.522210590720000e-1
2.684879198050000e-1 2.858039029190000e-1 3.042366709940000e-1 3.238582504730000e-1
3.447453131030000e-1 3.669794755360000e-1 3.906476182450000e-1 4.158422250110000e-1
4.426617443080000e-1 4.712109739910000e-1 5.016014707949999e-1 5.339519862460000e-1
5.683889306870000e-1 6.050468672270000e-1 6.440690375480001e-1 6.856079216310000e-1
7.298258335660000e-1 7.768955558060000e-1 8.270010143140000e-1 8.803379972560000e-1
9.371149200540000e-1 9.975536397670000e-1 1.061890322010000e0 1.130376363750000e0
1.203279375710000e0 1.280884227970000e0 1.363494163190000e0 1.451431981480000e0
1.545041301780000e0 1.644687904550000e0 1.750761161040000e0 1.863675554820000e0
1.983872301320000e0 2.111821071960000e0 2.248021829330000e0 2.393006780840000e0
2.547342458360000e0 2.711631931890000e0 2.886517166120000e0 3.072681528910000e0
3.270852461540000e0 3.481804321250000e0 3.706361407010000e0 3.945401180510000e0
4.199857694860000e0 4.470725244420000e0 4.759062250030000e0 5.065995394800000e0
5.392724026670000e0 5.740524844860000e0 6.110756888640000e0 6.504866847750000e0
6.924394715420000e0 7.370979805930000e0 7.846367160210000e0 8.352414364680000e0
8.891098809780001e0 9.464525416710000e0 1.007493486240000e1 1.072471233500000e1
1.141639685400000e1 1.215269119190000e1 1.293647243480000e1 1.377080322470000e1
1.465894372760000e1 1.560436437160000e1 1.661075940850000e1 1.768206134880000e1
1.882245632800000e1 2.003640046440000e1 2.132863727100000e1 2.270421619130000e1
2.416851232970000e1 2.572724745520000e1 2.738651235930000e1 2.915279065560000e1
3.103298411480000e1 3.303443963390000e1 3.516497794380000e1 3.743292416910000e1
3.984714035910001e1 4.241706011600001e1 4.515272545710000e1 4.806482605410000e1
5.116474100340000e1 5.446458329010000e1 5.797724711960001e1
</PP_R>
<PP_RAB>
8.805595619580000e-5 9.373507744520001e-5 9.978047054659999e-5 1.062157580050000e-4
1.130660858460000e-4 1.203582218750000e-4 1.281206602710000e-4 1.363837329310000e-4
1.451797279920000e-4 1.545430159950000e-4 1.645101841910000e-4 1.751201795070000e-4
1.864144607290000e-4 1.984371605090000e-4 2.112352578050000e-4 2.248587614610000e-4
2.393609056150000e-4 2.547983577080000e-4 2.712314399220000e-4 2.887243648810000e-4
3.073454865710000e-4 3.271675674280000e-4 3.482680626650001e-4 3.707294229250000e-4
3.946394164610000e-4 4.200914720929999e-4 4.471850442819999e-4 4.760260017489999e-4
5.067270411629999e-4 5.394081275020000e-4 5.741969628210000e-4 6.112294852500000e-4
6.506504001760000e-4 6.926137456799999e-4 7.372834944469999e-4 7.848341944900000e-4
8.354516512040000e-4 8.893336534010000e-4 9.466907461740002e-4 1.007747053610000e-3
1.072741154560000e-3 1.141927014880000e-3 1.215574979830000e-3 1.293972830430000e-3
1.377426907980000e-3 1.466263311110000e-3 1.560829169990000e-3 1.661494002770000e-3
1.768651159480000e-3 1.882719359020000e-3 2.004144325380000e-3 2.133400529240000e-3
2.270993042020000e-3 2.417459509480000e-3 2.573372252500000e-3 2.739340503510000e-3
2.916012787080000e-3 3.104079453980000e-3 3.304275378800000e-3 3.517382831470000e-3
3.744234534000000e-3 3.985716914330000e-3 4.242773570120000e-3 4.516408955829999e-3
4.807692307690000e-3 5.117761821720000e-3 5.447829101280001e-3 5.799183891450000e-3
6.173199118690000e-3 6.571336255640001e-3 6.995151031820001e-3 7.446299512660000e-3
7.926544570670000e-3 8.437762773850000e-3 8.981951718420000e-3 9.561237834529999e-3
1.017788469530000e-2 1.083430186160000e-2 1.153305429790000e-2 1.227687239450000e-2
1.306866263680000e-2 1.391151896240000e-2 1.480873485060000e-2 1.576381619200000e-2
1.678049498780000e-2 1.786274393240000e-2 1.901479193710000e-2 2.024114065450000e-2
2.154658206890000e-2 2.293621722100000e-2 2.441547614030000e-2 2.599013906320000e-2
2.766635901930000e-2 2.945068587440000e-2 3.135009192470000e-2 3.337199914040000e-2
3.552430816790000e-2 3.781542920170000e-2 4.025431484680000e-2 4.285049510189999e-2
4.561411459790000e-2 4.855597223790000e-2 5.168756339460000e-2 5.502112482850000e-2
5.856968250340000e-2 6.234710248540000e-2 6.636814512529999e-2 7.064852273460000e-2
7.520496098170000e-2 8.005526424810000e-2 8.521838519930000e-2 9.071449884259998e-2
9.656508136149998e-2 1.027929940340000e-1 1.094225725650000e-1 1.164797221760000e-1
1.239920188330000e-1 1.319888169970000e-1 1.405013643330000e-1 1.495629238030000e-1
1.592089036480000e-1 1.694769957430000e-1 1.804073228830000e-1 1.920425955570000e-1
2.044282788460000e-1 2.176127700780000e-1 2.316475879380000e-1 2.465875737820000e-1
2.624911059290000e-1 2.794203277760000e-1 2.974413906270000e-1 3.166247121750000e-1
3.370452516670000e-1 3.587828028040000e-1 3.819223055400000e-1 4.065541779840000e-1
4.327746697140000e-1 4.606862378710000e-1 4.903979475130000e-1 5.220258977920000e-1
5.556936756110000e-1 5.915328385440000e-1 6.296834288980000e-1 6.702945209340000e-1
7.135248033780000e-1 7.595431994960000e-1 8.085295271720000e-1 8.606752015460000e-1
9.161839829740000e-1 9.752727732249999e-1 1.038172463030000e0 1.105128834300000e0
1.176403520500000e0 1.252275029020000e0 1.333039829440000e0 1.419013511950000e0
1.510532020600000e0 1.607952965950000e0 1.711657022460000e0 1.822049415970000e0
1.939561507180000e0 2.064652477120000e0 2.197811121490000e0 2.339557760570000e0
2.490446272440000e0 2.651066257250000e0 2.822045341070000e0 3.004051628380000e0
3.197796312710000e0 3.404036455630000e0 3.623577944970000e0
</PP_RAB>
</PP_MESH>
<PP_LOCAL columns="4">
-5.601729373070000e0 -5.601730458670000e0 -5.601731688830000e0 -5.601733082770000e0
-5.601734662320000e0 -5.601736452180000e0 -5.601738480350000e0 -5.601740778560000e0
-5.601743382770000e0 -5.601746333730000e0 -5.601749677590000e0 -5.601753466670000e0
-5.601757760250000e0 -5.601762625490000e0 -5.601768138510000e0 -5.601774385560000e0
-5.601781464350000e0 -5.601789485630000e0 -5.601798574860000e0 -5.601808874240000e0
-5.601820544870000e0 -5.601833769300000e0 -5.601848754380000e0 -5.601865734490000e0
-5.601884975210000e0 -5.601906777470000e0 -5.601931482220000e0 -5.601959475800000e0
-5.601991195970000e0 -5.602027138700000e0 -5.602067865960000e0 -5.602114014460000e0
-5.602166305590000e0 -5.602225556680000e0 -5.602292693730000e0 -5.602368765810000e0
-5.602454961430000e0 -5.602552627010000e0 -5.602663287810000e0 -5.602788671610000e0
-5.602930735560000e0 -5.603091696470000e0 -5.603274065150000e0 -5.603480685220000e0
-5.603714776990000e0 -5.603979987080000e0 -5.604280444470000e0 -5.604620823830000e0
-5.605006417030000e0 -5.605443213810000e0 -5.605937992800000e0 -5.606498424150000e0
-5.607133185060000e0 -5.607852089840000e0 -5.608666236190000e0 -5.609588169420000e0
-5.610632066720000e0 -5.611813943580000e0 -5.613151884560000e0 -5.614666300900000e0
-5.616380217400000e0 -5.618319591050000e0 -5.620513663830000e0 -5.622995351910000e0
-5.625801673340000e0 -5.628974215270000e0 -5.632559641680000e0 -5.636610240500000e0
-5.641184508130000e0 -5.646347766300000e0 -5.652172803480000e0 -5.658740528610000e0
-5.666140619170000e0 -5.674472138400000e0 -5.683844087010000e0 -5.694375842200000e0
-5.706197421900000e0 -5.719449492250000e0 -5.734283012490000e0 -5.750858381750000e0
-5.769343916200000e0 -5.789913442090000e0 -5.812742739660000e0 -5.838004514970000e0
-5.865861512380000e0 -5.896457311570000e0 -5.929904284270000e0 -5.966268124430000e0
-6.005548322850000e0 -6.047653950580000e0 -6.092374168910000e0 -6.139343031790000e0
-6.187998433110000e0 -6.237535531580000e0 -6.286855726220000e0 -6.334513323680000e0
-6.378663499150000e0 -6.417017039100000e0 -6.446809644450000e0 -6.464796134070000e0
-6.467282421330000e0 -6.450210100580000e0 -6.409309031400000e0 -6.340331279270000e0
-6.239373746000000e0 -6.103285387980000e0 -5.930137168330000e0 -5.719709225840000e0
-5.473922924470000e0 -5.197121552830000e0 -4.896092190980000e0 -4.579734729210000e0
-4.258332866840000e0 -3.942468875510000e0 -3.641736145230000e0 -3.363508064800000e0
-3.112070224510000e0 -2.888370215790000e0 -2.690473489020000e0 -2.514581004050000e0
-2.356265095320000e0 -2.211520997080000e0 -2.077354063880000e0 -1.951859649900000e0
-1.833964133120000e0 -1.723069627940000e0 -1.618777002770000e0 -1.520739630160000e0
-1.428615234160000e0 -1.342063164560000e0 -1.260752410190000e0 -1.184367417320000e0
-1.112610242370000e0 -1.045200597670000e0 -9.818750948969999e-1 -9.223862902090000e-1
-8.665017299830000e-1 -8.140030440960000e-1 -7.646850927940000e-1 -7.183551651100000e-1
-6.748322258429999e-1 -6.339462081650000e-1 -5.955373490710000e-1 -5.594555651110000e-1
-5.255598659289999e-1 -4.937178033440000e-1 -4.638049538050000e-1 -4.357044322020000e-1
-4.093064351360000e-1 -3.845078118610000e-1 -3.612116612160000e-1 -3.393269529860000e-1
-3.187681722000000e-1 -2.994549849740000e-1 -2.813119246090000e-1 -2.642680967030000e-1
-2.482569021280000e-1 -2.332157767920000e-1 -2.190859471730000e-1 -2.058122006530000e-1
-1.933426697800000e-1 -1.816286295910000e-1 -1.706243072180000e-1 -1.602867030340000e-1
-1.505754226260000e-1 -1.414525189530000e-1 -1.328823440730000e-1 -1.248314098390000e-1
-1.172682570520000e-1 -1.101633325280000e-1 -1.034888736200000e-1
</PP_LOCAL>
<PP_NONLOCAL>
<PP_BETA.1 index="1" label="3S" angular_momentum="0" cutoff_radius_index="143" cutoff_radius="0.000000000000e0" ultrasoft_cutoff_radius="0.000000000000e0">
2.309930770690000e-3 2.458909424770000e-3 2.617496497829999e-3 2.786312009180000e-3
2.966015549180000e-3 3.157309058120000e-3 3.360940460380000e-3 3.577705586160000e-3
3.808451376220000e-3 4.054079727500000e-3 4.315550695690000e-3 4.593886124200000e-3
4.890174127370000e-3 5.205572501670000e-3 5.541314274019999e-3 5.898711749399999e-3
6.279162266339999e-3 6.684153092220000e-3 7.115267596949999e-3 7.574191420170000e-3
8.062719272559999e-3 8.582761513720000e-3 9.136352216460001e-3 9.725656575520000e-3
1.035298043920000e-2 1.102077832370000e-2 1.173166332820000e-2 1.248841851980000e-2
1.329400657050000e-2 1.415158234830000e-2 1.506450545640000e-2 1.603635335320000e-2
1.707093589550000e-2 1.817231043400000e-2 1.934479872540000e-2 2.059300392860000e-2
2.192182936840000e-2 2.333649967550000e-2 2.484257977180000e-2 2.644600127960000e-2
2.815308453050000e-2 2.997056616010000e-2 3.190562835120000e-2 3.396592962710000e-2
3.615963920620000e-2 3.849546622010000e-2 4.098270927050001e-2 4.363129189500000e-2
4.645181147380001e-2 4.945558629000000e-2 5.265470890570000e-2 5.606211392300001e-2
5.969163605189999e-2 6.355808342870000e-2 6.767731678180001e-2 7.206634407840000e-2
7.674340591190000e-2 8.172809702540000e-2 8.704147726880000e-2 9.270621232669999e-2
9.874672854909999e-2 1.051893805130000e-1 1.120626461460000e-1 1.193973525380000e-1
1.272269173090000e-1 1.355876418910000e-1 1.445190231040000e-1 1.540641380060000e-1
1.642700520420000e-1 1.751882959280000e-1 1.868754278940000e-1 1.993936302100000e-1
2.128114233930000e-1 2.272044606670000e-1 2.426563768490000e-1 2.592597867410000e-1
2.771173947600000e-1 2.963430234130000e-1 3.170629190880000e-1 3.394168806470000e-1
3.635594710350000e-1 3.896608775490000e-1 4.179076476530000e-1 4.485025929630000e-1
4.816640053450000e-1 5.176233343390000e-1 5.566208341210000e-1 5.988982968410000e-1
6.446877571200000e-1 6.941946321810000e-1 7.475736998780000e-1 8.048956251869999e-1
8.661019304000000e-1 9.309462173340000e-1 9.989201277559999e-1 1.069163936850000e0
1.140364758520000e0 1.210649851640000e0 1.277489387700000e0 1.337633814420000e0
1.387118362200000e0 1.421382181100000e0 1.435547092520000e0 1.424895870980000e0
1.385554516220000e0 1.315323817500000e0 1.214522596340000e0 1.086617684010000e0
9.383726339620001e-1 7.792949421699999e-1 6.203355292019999e-1 4.720668462850000e-1
3.428282137450000e-1 2.374269063870000e-1 1.568165051630000e-1 9.878375118290000e-2
5.926228220970000e-2 3.369409504760000e-2 1.797804971670000e-2 8.866571599120000e-3
3.963422464230000e-3 1.569924295670000e-3 5.378196363800000e-4 1.553554873170000e-4
3.685093789140001e-5 6.979731770280001e-6 1.024254136030000e-6 1.126811457780000e-7
8.960933017050001e-9 4.946303426879999e-10 1.810761793770000e-11 4.176507211009999e-13
5.720218121400000e-15 4.999731739730001e-17 0.000000000000000e0 0.000000000000000e0
0.000000000000000e0 0.000000000000000e0 0.000000000000000e0 0.000000000000000e0
0.000000000000000e0 0.000000000000000e0 0.000000000000000e0 0.000000000000000e0
0.000000000000000e0 0.000000000000000e0 0.000000000000000e0 0.000000000000000e0
0.000000000000000e0 0.000000000000000e0 0.000000000000000e0 0.000000000000000e0
0.000000000000000e0 0.000000000000000e0 0.000000000000000e0 0.000000000000000e0
0.000000000000000e0 0.000000000000000e0 0.000000000000000e0 0.000000000000000e0
0.000000000000000e0 0.000000000000000e0 0.000000000000000e0 0.000000000000000e0
0.000000000000000e0 0.000000000000000e0 0.000000000000000e0 0.000000000000000e0
0.000000000000000e0 0.000000000000000e0 0.000000000000000e0
</PP_BETA.1>
<PP_BETA.2 index="2" label="3P" angular_momentum="1" cutoff_radius_index="143" cutoff_radius="0.000000000000e0" ultrasoft_cutoff_radius="0.000000000000e0">
3.088664765469999e-6 3.499914864280000e-6 3.965921920400000e-6 4.493976790290000e-6
5.092341006050001e-6 5.770375900579999e-6 6.538689324780000e-6 7.409301782489999e-6
8.395833615889998e-6 9.513719297090001e-6 1.078044795720000e-5 1.221583659160000e-5
1.384234218680000e-5 1.568541083880000e-5 1.777387558590000e-5 2.014041006110000e-5
2.282203593000000e-5 2.586070525210000e-5 2.930395485660000e-5 3.320565001200000e-5
3.762682600540001e-5 4.263664489060000e-5 4.831347599660001e-5 5.474611838460000e-5
6.203519399810000e-5 7.029471810150001e-5 7.965388049230000e-5 9.025906707339999e-5
1.022761465040000e-4 1.158930638760000e-4 1.313227601710000e-4 1.488065390320000e-4
1.686177887140000e-4 1.910662697750000e-4 2.165029739690000e-4 2.453255334720000e-4
2.779845052660001e-4 3.149903356990000e-4 3.569213478970000e-4 4.044327091480000e-4
4.582666898360000e-4 5.192641393470002e-4 5.883776118020000e-4 6.666861199790000e-4
7.554118961369999e-4 8.559393225670000e-4 9.698363332630000e-4 1.098878638560000e-3
1.245077230500000e-3 1.410709153940000e-3 1.598352646330000e-3 1.810926567720000e-3
2.051734987190000e-3 2.324517548530000e-3 2.633506292750000e-3 2.983489562250000e-3
3.379884023480000e-3 3.828815662200000e-3 4.337210973440000e-3 4.912899234159999e-3
5.564727139720000e-3 6.302686947730001e-3 7.138060218030001e-3 8.083577803420001e-3
9.153597504280000e-3 1.036430103840000e-2 1.173391470120000e-2 1.328294386890000e-2
1.503444415150000e-2 1.701430076860000e-2 1.925154462060000e-2 2.177868157150000e-2
2.463204597460000e-2 2.785217105650000e-2 3.148416735930000e-2 3.557810143509999e-2
4.018936255870001e-2 4.537899611179999e-2 5.121397926110001e-2 5.776740053060000e-2
6.511850697060000e-2 7.335253962190000e-2 8.256030416869999e-2 9.283736494199999e-2
1.042827373380000e-1 1.169969344570000e-1 1.310792431300000e-1 1.466238864410000e-1
1.637150471170000e-1 1.824203777140000e-1 2.027828081090000e-1 2.248105487550000e-1
2.484651998470000e-1 2.736480841040000e-1 3.001853267380000e-1 3.278123999820000e-1
3.561594606410000e-1 3.847394172090000e-1 4.129408104190000e-1 4.400280978610000e-1
4.651513761150000e-1 4.873666797090000e-1 5.056661661270000e-1 5.190153929330000e-1
5.263939269620001e-1 5.268358040510000e-1 5.194712609100000e-1 5.035797452650001e-1
4.786724447520000e-1 4.446251431020000e-1 4.018672463810001e-1 3.515973003230000e-1
2.959450844270000e-1 2.379627289960000e-1 1.813404883220000e-1 1.298295897370000e-1
8.649864179120000e-2 5.307764746129999e-2 2.966193605080000e-2 1.491198656180000e-2
6.653290551710000e-3 2.595141250710000e-3 8.701194076840000e-4 2.460520848179999e-4
5.743219744259999e-5 1.079849383620000e-5 1.590830780730000e-6 1.779490598270000e-7
1.458507506470000e-8 8.412541657870001e-10 3.261968767070000e-11 8.072947445199999e-13
1.199968220790000e-14 1.138433525230000e-16 0.000000000000000e0 0.000000000000000e0
0.000000000000000e0 0.000000000000000e0 0.000000000000000e0 0.000000000000000e0
0.000000000000000e0 0.000000000000000e0 0.000000000000000e0 0.000000000000000e0
0.000000000000000e0 0.000000000000000e0 0.000000000000000e0 0.000000000000000e0
0.000000000000000e0 0.000000000000000e0 0.000000000000000e0 0.000000000000000e0
0.000000000000000e0 0.000000000000000e0 0.000000000000000e0 0.000000000000000e0
0.000000000000000e0 0.000000000000000e0 0.000000000000000e0 0.000000000000000e0
0.000000000000000e0 0.000000000000000e0 0.000000000000000e0 0.000000000000000e0
0.000000000000000e0 0.000000000000000e0 0.000000000000000e0 0.000000000000000e0
0.000000000000000e0 0.000000000000000e0 0.000000000000000e0
</PP_BETA.2>
<PP_DIJ>
2.742810312750000e0 0.000000000000000e0 0.000000000000000e0 6.935446640740000e0
</PP_DIJ>
</PP_NONLOCAL>
<PP_PSWFC>
<PP_CHI.1 index="1" label="3S" l="0" occupation="2.000000000000e0" n="0" pseudo_energy="0.000000000000e0" cutoff_radius="0.000000000000e0" ultrasoft_cutoff_radius="0.000000000000e0">
1.079563800000000e-4 1.149190600000000e-4 1.223308100000000e-4 1.302206100000000e-4
1.386192900000000e-4 1.475596600000000e-4 1.570766800000000e-4 1.672075500000000e-4
1.779918600000000e-4 1.894717700000000e-4 2.016921599999999e-4 2.147008000000000e-4
2.285485600000000e-4 2.432895700000000e-4 2.589814800000000e-4 2.756856500000000e-4
2.934674200000000e-4 3.123963399999999e-4 3.325464600000000e-4 3.539966200000000e-4
3.768307700000000e-4 4.011382800000001e-4 4.270143200000000e-4 4.545602100000000e-4
4.838838700000000e-4 5.151002000000000e-4 5.483315499999999e-4 5.837082600000000e-4
6.213691200000000e-4 6.614619700000000e-4 7.041443000000001e-4 7.495838800000000e-4
7.979594600000000e-4 8.494615000000000e-4 9.042929899999999e-4 9.626702799999999e-4
1.024824000000000e-3 1.091000100000000e-3 1.161460800000000e-3 1.236485900000000e-3
1.316373900000000e-3 1.401443400000000e-3 1.492034600000000e-3 1.588510900000000e-3
1.691260700000000e-3 1.800699000000000e-3 1.917270000000000e-3 2.041449100000000e-3
2.173745600000000e-3 2.314705400000000e-3 2.464914100000000e-3 2.625000900000000e-3
2.795642200000001e-3 2.977566100000000e-3 3.171557400000000e-3 3.378463600000000e-3
3.599200800000000e-3 3.834761700000000e-3 4.086223600000000e-3 4.354758400000000e-3
4.641644000000000e-3 4.948277200000001e-3 5.276189000000000e-3 5.627062700000001e-3
6.002754400000000e-3 6.405317999999999e-3 6.837033600000000e-3 7.300442499999999e-3
7.798387200000000e-3 8.334059499999999e-3 8.911058700000002e-3 9.533459000000001e-3
1.020589200000000e-2 1.093364500000000e-2 1.172277700000000e-2 1.258026100000000e-2
1.351415600000000e-2 1.453380600000000e-2 1.565009200000000e-2 1.687572600000000e-2
1.822561400000000e-2 1.971728500000000e-2 2.137142100000000e-2 2.321248300000000e-2
2.526947900000000e-2 2.757688000000000e-2 3.017572000000000e-2 3.311491000000000e-2
3.645279900000000e-2 4.025900700000000e-2 4.461656300000000e-2 4.962434399999999e-2
5.539980300000000e-2 6.208191600000000e-2 6.983420499999999e-2 7.884757200000001e-2
8.934252799999999e-2 1.015701600000000e-1 1.158108700000000e-1 1.323697000000000e-1
1.515664200000000e-1 1.737187700000000e-1 1.991167000000000e-1 2.279864100000000e-1
2.604439400000000e-1 2.964403700000000e-1 3.357041500000000e-1 3.776896700000000e-1
4.215448700000000e-1 4.661118500000000e-1 5.099715099999999e-1 5.515353800000000e-1
5.891754700000000e-1 6.213702600000000e-1 6.468373900000000e-1 6.646261200000000e-1
6.741552400000001e-1 6.752007500000000e-1 6.678524500000000e-1 6.524629300000000e-1
6.296056500000001e-1 6.000452500000000e-1 5.647134299999999e-1 5.246805100000000e-1
4.811176300000001e-1 4.352499100000000e-1 3.883052100000000e-1 3.414635000000000e-1
2.958104900000000e-1 2.522982600000000e-1 2.117145000000000e-1 1.746616800000000e-1
1.415471000000000e-1 1.125839500000000e-1 8.780311500000000e-2 6.707433600000000e-2
5.013483800000000e-2 3.662278200000000e-2 2.611261000000000e-2 1.814935300000000e-2
1.227929000000000e-2 8.074931699999999e-3 5.153126700000001e-3 3.185957300000000e-3
1.904896800000000e-3 1.099362000000000e-3 6.111791999999999e-4 3.265995100000000e-4
1.673693400000000e-4 8.204856599999999e-5 3.837437100000000e-5 1.707394900000000e-5
7.203829000000001e-6 2.871155400000001e-6 1.077893500000000e-6 3.797633700000000e-7
1.250348000000000e-7 3.829571000000001e-8 1.085754100000000e-8 2.834366500000001e-9
6.774164999999998e-10 1.477850900000000e-10 3.190433900000000e-11 6.226892700000000e-12
1.091615700000000e-12 1.707013700000000e-13 2.363585200000000e-14 2.875174600000001e-15
3.047108100000000e-16 2.788561300000000e-17 2.182881600000000e-18
</PP_CHI.1>
<PP_CHI.2 index="2" label="3P" l="1" occupation="1.000000000000e0" n="0" pseudo_energy="0.000000000000e0" cutoff_radius="0.000000000000e0" ultrasoft_cutoff_radius="0.000000000000e0">
3.211997499999999e-7 3.639670700000000e-7 4.124288000000000e-7 4.673431600000000e-7
5.295693200000001e-7 6.000808300000000e-7 6.799808800000000e-7 7.705195800000000e-7
8.731134299999999e-7 9.893676100000000e-7 1.121101000000000e-6 1.270374600000000e-6
1.439524000000000e-6 1.631195700000000e-6 1.848388500000000e-6 2.094500700000000e-6
2.373382900000000e-6 2.689398600000000e-6 3.047492300000000e-6 3.453266900000000e-6
3.913071300000000e-6 4.434099999999999e-6 5.024505599999999e-6 5.693526100000000e-6
6.451630000000000e-6 7.310679899999998e-6 8.284118100000001e-6 9.387177300000001e-6
1.063711900000000e-5 1.205350400000000e-5 1.365849700000000e-5 1.547721800000000e-5
1.753813100000000e-5 1.987349200000000e-5 2.251985700000000e-5 2.551864800000000e-5
2.891681100000000e-5 3.276754600000000e-5 3.713114500000000e-5 4.207593400000000e-5
4.767935200000000e-5 5.402916000000001e-5 6.122482600000000e-5 6.937908500000000e-5
7.861971500000000e-5 8.909154800000000e-5 1.009587500000000e-4 1.144074100000000e-4
1.296484900000000e-4 1.469211400000000e-4 1.664965000000000e-4 1.886819900000000e-4
2.138261900000000e-4 2.423243900000000e-4 2.746249000000000e-4 3.112362099999999e-4
3.527351400000000e-4 3.997761100000000e-4 4.531017100000000e-4 5.135547300000000e-4
5.820918700000000e-4 6.597993599999999e-4 7.479108500000001e-4 8.478278200000000e-4
9.611428899999998e-4 1.089666500000000e-3 1.235457800000000e-3 1.400859200000000e-3
1.588537600000000e-3 1.801530100000000e-3 2.043298200000000e-3 2.317789300000000e-3
2.629508300000000e-3 2.983600600000000e-3 3.385948200000000e-3 3.843281400000000e-3
4.363308999999999e-3 4.954870000000000e-3 5.628110799999999e-3 6.394692000000001e-3
7.268031100000000e-3 8.263585000000001e-3 9.399181800000001e-3 1.069540800000000e-2
1.217605900000000e-2 1.386866200000000e-2 1.580508600000000e-2 1.802223000000000e-2
2.056281800000000e-2 2.347628500000000e-2 2.681975000000000e-2 3.065906500000000e-2
3.506989900000001e-2 4.013879200000000e-2 4.596409600000000e-2 5.265664700000000e-2
6.033997100000001e-2 6.914977700000000e-2 7.923237400000000e-2 9.074164099999999e-2
1.038341100000000e-1 1.186617700000000e-1 1.353623000000000e-1 1.540466600000000e-1
1.747844600000000e-1 1.975879000000000e-1 2.223957000000000e-1 2.490590500000000e-1
2.773316400000000e-1 3.068658400000000e-1 3.372161000000000e-1 3.678497700000000e-1
3.981642900000000e-1 4.275086200000001e-1 4.552072000000000e-1 4.805847300000000e-1
5.029911800000000e-1 5.218266700000001e-1 5.365656100000001e-1 5.467787299999999e-1
5.521511200000000e-1 5.524946400000000e-1 5.477537200000000e-1 5.380048700000000e-1
5.234509800000000e-1 5.044118600000001e-1 4.813120900000000e-1 4.546671400000000e-1
4.250676900000000e-1 3.931622600000000e-1 3.596380100000000e-1 3.251996700000000e-1
2.905471200000000e-1 2.563524400000000e-1 2.232373800000000e-1 1.917526900000000e-1
1.623605500000000e-1 1.354212000000000e-1 1.111850000000000e-1 8.979028700000001e-2
7.126727099999998e-2 5.554767900000001e-2 4.247921799999999e-2 3.184361899999999e-2
2.337665600000000e-2 1.678843600000000e-2 1.178232100000000e-2 8.071149899999998e-3
5.389842400000000e-3 3.503961000000000e-3 2.214300100000000e-3 1.357957700000000e-3
8.066158200000000e-4 4.629509000000000e-4 2.564916600000000e-4 1.368919400000000e-4
7.020725400000000e-5 3.451034600000000e-5 1.621320700000000e-5 7.258545500000002e-6
3.086835900000000e-6 1.242765700000000e-6 4.719600699999999e-7 1.684211000000000e-7
5.626702200000000e-8 1.760794400000000e-8 5.457089800000001e-9 1.565760700000000e-9
4.138373800000000e-10 1.002219800000000e-10 2.211391900000000e-11
</PP_CHI.2>
</PP_PSWFC>
<PP_RHOATOM>
2.330926313470000e-8 2.641291317460000e-8 2.992982424800000e-8 3.391503294720000e-8
3.843089556390000e-8 4.354806661560001e-8 4.934662917360000e-8 5.591732325440000e-8
6.336296677960000e-8 7.180008210210000e-8 8.136071167839999e-8 9.219448089289999e-8
1.044709607850000e-7 1.183822905410000e-7 1.341462305060000e-7 1.520095421650000e-7
1.722518861490000e-7 1.951901793560000e-7 2.211835833260001e-7 2.506391389950000e-7
2.840181705650000e-7 3.218435006060000e-7 3.647077046270000e-7 4.132823852700001e-7
4.683288228220000e-7 5.307098781210001e-7 6.014036040630001e-7 6.815187846820001e-7
7.723123148799999e-7 8.752091624710001e-7 9.918249449850002e-7 1.123991530590000e-6
1.273786185650000e-6 1.443564635650000e-6 1.635998767490000e-6 1.854119337390000e-6
2.101364643910000e-6 2.381636148470000e-6 2.699361101800000e-6 3.059565146020000e-6
3.467953809810000e-6 3.931006356939999e-6 4.456082974510000e-6 5.051547216270001e-6
5.726906570320000e-6 6.492971081130000e-6 7.362041175000000e-6 8.348117911239999e-6
9.467148598000000e-6 1.073730799900000e-5 1.217932412530000e-5 1.381686034340000e-5
1.567695226040000e-5 1.779052086970000e-5 2.019297151870000e-5 2.292490057150000e-5
2.603291487640000e-5 2.957061552970000e-5 3.359974777800000e-5 3.819157990540000e-5
4.342854899060001e-5 4.940622969149999e-5 5.623571136700000e-5 6.404648127180001e-5
7.298991642840001e-5 8.324357044350000e-5 9.501641287059998e-5 1.085553278900000e-4
1.241531375490000e-4 1.421586062000000e-4 1.629890018440000e-4 1.871458282490000e-4
2.152347769310000e-4 2.479910585120000e-4 2.863116463970000e-4 3.312967455760000e-4
3.843032902139999e-4 4.470137704080001e-4 5.215263903940000e-4 6.104723418290000e-4
7.171702874249998e-4 8.458294925950000e-4 1.001819889630000e-3 1.192030486340000e-3
1.425349550630000e-3 1.713308406740000e-3 2.070948898500000e-3 2.517995302790000e-3
3.080442593970000e-3 3.792711246650000e-3 4.700574377930000e-3 5.865129301530000e-3
7.368174160750001e-3 9.319451211679999e-3 1.186633049710000e-2 1.520660169390000e-2
1.960508671910000e-2 2.541468646400000e-2 3.310208431000000e-2 4.327752036760000e-2
5.672628174270001e-2 7.443703776020000e-2 9.761787269910000e-2 1.276859797470000e-1
1.662116992230000e-1 2.147947641580000e-1 2.748544000330000e-1 3.473293840360000e-1
4.323129933920001e-1 5.286871571800001e-1 6.338565801230000e-1 7.436960040730000e-1
8.527902707310000e-1 9.549656201990000e-1 1.044010813140000e0 1.114417441480000e0
1.161970702400000e0 1.184095179120000e0 1.179956443780000e0 1.150382729630000e0
1.097677408340000e0 1.025358931320000e0 9.378366538190001e-1 8.400285152910000e-1