<UPF version="2.0.1">
  <PP_INFO>

 This pseudopotential file has been produced using the code
 ONCVPSP  (Optimized Norm-Conservinng Vanderbilt PSeudopotential)
 fully-relativistic version 2.1.1, 03/26/2014 by D. R. Hamann
 The code is available through a link at URL www.mat-simresearch.com.
 Documentation with the package provides a full description of the
 input data below.

 While it is not required under the terms of the GNU GPL, it is
 suggested that you cite D. R. Hamann, Phys. Rev. B 88, 085117 (2013)
 in any publication using these pseudopotentials.

 -----

 This pseudopotential was produced with the SG15 1.0 and/or 1.1
 parameter sets, the Schlipf-Gygi norm-conserving pseudopotential
 library. For details of the construction and testing of the
 pseudopotential please refer to:

 M. Schlipf, F. Gygi, Comp. Phys. Comm. 196, 36 (2015)
 http://dx.doi.org/10.1016/j.cpc.2015.05.011

 The above authors kindly ask that you include this reference in all
 publications associated to this pseudopotential.

 Please note this fully-relativistic version does not employ the
 above self-consistent procedure at the fully-relativistic level.

 -----

 This pseudopotential was produced by Peter Scherpelz for the purpose
 of performing GW calculations with spin-orbit-coupling. Please see
 the publication:

 P. Scherpelz, M. Govoni, I. Hamada, G. Galli; J. Chem. Theory Comput. (2016)
 http://dx.doi.org/10.1021/acs.jctc.6b00114

 If you use these pseudopotentials in your work, we also kindly ask
 that you cite the above publication.

 -----

 This work is licensed under the Creative Commons Attribution-ShareAlike 
 4.0 International License. To view a copy of this license, visit 
 http://creativecommons.org/licenses/by-sa/4.0/ or send a letter to 
 Creative Commons, PO Box 1866, Mountain View, CA 94042, USA.

 The SG15 library is Copyright 2015 The Regents of the University of
 California.  Further modifications of these files are Copyright 2016
 Peter Scherpelz.

    <PP_INPUTFILE>
# ATOM AND REFERENCE CONFIGURATION
# atsym  z    nc    nv    iexc   psfile
  As 33.00     6     2     4      upf
#
#   n    l    f        energy (Ha)
    1    0    2.00
    2    0    2.00
    2    1    6.00
    3    0    2.00
    3    1    6.00
    3    2   10.00
    4    0    2.00
    4    1    3.00
#
# PSEUDOPOTENTIAL AND OPTIMIZATION
# lmax
    2
#
#   l,   rc,     ep,   ncon, nbas, qcut
    0    2.95   -0.53    5    8    4.04
    1    2.01   -0.19    5    8    6.32
    2    2.95    0.08    5    8    4.23
#
# LOCAL POTENTIAL
# lloc, lpopt,  rc(5),   dvloc0
    4    5      1.57       0.00
#
# VANDERBILT-KLEINMAN-BYLANDER PROJECTORs
# l, nproj, debl
    0    2    0.5148
    1    2    1.2462
    2    2    2.0588
#
# MODEL CORE CHARGE
# icmod, fcfact
    0    0.00
#
# LOG DERIVATIVE ANALYSIS
# epsh1, epsh2, depsh
   -5.00    3.00    0.02
#
# OUTPUT GRID
# rlmax, drl
    6.00    0.01
#
# TEST CONFIGURATIONS
# ncnf
    0
# nvcnf
#   n    l    f
    </PP_INPUTFILE>
  </PP_INFO>
  <!--                               -->
  <!-- END OF HUMAN READABLE SECTION -->
  <!--                               -->
    <PP_HEADER
       generated="Generated using ONCVPSP code by D. R. Hamann"
       author="anonymous"
       date="150703"
       comment=""
       element="As"
       pseudo_type="NC"
       relativistic="full"
       is_ultrasoft="F"
       is_paw="F"
       is_coulomb="F"
       has_so="T"
       has_wfc="F"
       has_gipaw="F"
       core_correction="F"
       functional="PBE"
       z_valence="    5.00"
       total_psenergy="  -6.16903307785E+00"
       rho_cutoff="   6.01000000000E+00"
       l_max="2"
       l_local="-1"
       mesh_size="   602"
       number_of_wfc="0"
       number_of_proj="10"/>
 <PP_MESH>
   <PP_R type="real"  size=" 602" columns="8">
    0.0000    0.0100    0.0200    0.0300    0.0400    0.0500    0.0600    0.0700
    0.0800    0.0900    0.1000    0.1100    0.1200    0.1300    0.1400    0.1500
    0.1600    0.1700    0.1800    0.1900    0.2000    0.2100    0.2200    0.2300
    0.2400    0.2500    0.2600    0.2700    0.2800    0.2900    0.3000    0.3100
    0.3200    0.3300    0.3400    0.3500    0.3600    0.3700    0.3800    0.3900
    0.4000    0.4100    0.4200    0.4300    0.4400    0.4500    0.4600    0.4700
    0.4800    0.4900    0.5000    0.5100    0.5200    0.5300    0.5400    0.5500
    0.5600    0.5700    0.5800    0.5900    0.6000    0.6100    0.6200    0.6300
    0.6400    0.6500    0.6600    0.6700    0.6800    0.6900    0.7000    0.7100
    0.7200    0.7300    0.7400    0.7500    0.7600    0.7700    0.7800    0.7900
    0.8000    0.8100    0.8200    0.8300    0.8400    0.8500    0.8600    0.8700
    0.8800    0.8900    0.9000    0.9100    0.9200    0.9300    0.9400    0.9500
    0.9600    0.9700    0.9800    0.9900    1.0000    1.0100    1.0200    1.0300
    1.0400    1.0500    1.0600    1.0700    1.0800    1.0900    1.1000    1.1100
    1.1200    1.1300    1.1400    1.1500    1.1600    1.1700    1.1800    1.1900
    1.2000    1.2100    1.2200    1.2300    1.2400    1.2500    1.2600    1.2700
    1.2800    1.2900    1.3000    1.3100    1.3200    1.3300    1.3400    1.3500
    1.3600    1.3700    1.3800    1.3900    1.4000    1.4100    1.4200    1.4300
    1.4400    1.4500    1.4600    1.4700    1.4800    1.4900    1.5000    1.5100
    1.5200    1.5300    1.5400    1.5500    1.5600    1.5700    1.5800    1.5900
    1.6000    1.6100    1.6200    1.6300    1.6400    1.6500    1.6600    1.6700
    1.6800    1.6900    1.7000    1.7100    1.7200    1.7300    1.7400    1.7500
    1.7600    1.7700    1.7800    1.7900    1.8000    1.8100    1.8200    1.8300
    1.8400    1.8500    1.8600    1.8700    1.8800    1.8900    1.9000    1.9100
    1.9200    1.9300    1.9400    1.9500    1.9600    1.9700    1.9800    1.9900
    2.0000    2.0100    2.0200    2.0300    2.0400    2.0500    2.0600    2.0700
    2.0800    2.0900    2.1000    2.1100    2.1200    2.1300    2.1400    2.1500
    2.1600    2.1700    2.1800    2.1900    2.2000    2.2100    2.2200    2.2300
    2.2400    2.2500    2.2600    2.2700    2.2800    2.2900    2.3000    2.3100
    2.3200    2.3300    2.3400    2.3500    2.3600    2.3700    2.3800    2.3900
    2.4000    2.4100    2.4200    2.4300    2.4400    2.4500    2.4600    2.4700
    2.4800    2.4900    2.5000    2.5100    2.5200    2.5300    2.5400    2.5500
    2.5600    2.5700    2.5800    2.5900    2.6000    2.6100    2.6200    2.6300
    2.6400    2.6500    2.6600    2.6700    2.6800    2.6900    2.7000    2.7100
    2.7200    2.7300    2.7400    2.7500    2.7600    2.7700    2.7800    2.7900
    2.8000    2.8100    2.8200    2.8300    2.8400    2.8500    2.8600    2.8700
    2.8800    2.8900    2.9000    2.9100    2.9200    2.9300    2.9400    2.9500
    2.9600    2.9700    2.9800    2.9900    3.0000    3.0100    3.0200    3.0300
    3.0400    3.0500    3.0600    3.0700    3.0800    3.0900    3.1000    3.1100
    3.1200    3.1300    3.1400    3.1500    3.1600    3.1700    3.1800    3.1900
    3.2000    3.2100    3.2200    3.2300    3.2400    3.2500    3.2600    3.2700
    3.2800    3.2900    3.3000    3.3100    3.3200    3.3300    3.3400    3.3500
    3.3600    3.3700    3.3800    3.3900    3.4000    3.4100    3.4200    3.4300
    3.4400    3.4500    3.4600    3.4700    3.4800    3.4900    3.5000    3.5100
    3.5200    3.5300    3.5400    3.5500    3.5600    3.5700    3.5800    3.5900
    3.6000    3.6100    3.6200    3.6300    3.6400    3.6500    3.6600    3.6700
    3.6800    3.6900    3.7000    3.7100    3.7200    3.7300    3.7400    3.7500
    3.7600    3.7700    3.7800    3.7900    3.8000    3.8100    3.8200    3.8300
    3.8400    3.8500    3.8600    3.8700    3.8800    3.8900    3.9000    3.9100
    3.9200    3.9300    3.9400    3.9500    3.9600    3.9700    3.9800    3.9900
    4.0000    4.0100    4.0200    4.0300    4.0400    4.0500    4.0600    4.0700
    4.0800    4.0900    4.1000    4.1100    4.1200    4.1300    4.1400    4.1500
    4.1600    4.1700    4.1800    4.1900    4.2000    4.2100    4.2200    4.2300
    4.2400    4.2500    4.2600    4.2700    4.2800    4.2900    4.3000    4.3100
    4.3200    4.3300    4.3400    4.3500    4.3600    4.3700    4.3800    4.3900
    4.4000    4.4100    4.4200    4.4300    4.4400    4.4500    4.4600    4.4700
    4.4800    4.4900    4.5000    4.5100    4.5200    4.5300    4.5400    4.5500
    4.5600    4.5700    4.5800    4.5900    4.6000    4.6100    4.6200    4.6300
    4.6400    4.6500    4.6600    4.6700    4.6800    4.6900    4.7000    4.7100
    4.7200    4.7300    4.7400    4.7500    4.7600    4.7700    4.7800    4.7900
    4.8000    4.8100    4.8200    4.8300    4.8400    4.8500    4.8600    4.8700
    4.8800    4.8900    4.9000    4.9100    4.9200    4.9300    4.9400    4.9500
    4.9600    4.9700    4.9800    4.9900    5.0000    5.0100    5.0200    5.0300
    5.0400    5.0500    5.0600    5.0700    5.0800    5.0900    5.1000    5.1100
    5.1200    5.1300    5.1400    5.1500    5.1600    5.1700    5.1800    5.1900
    5.2000    5.2100    5.2200    5.2300    5.2400    5.2500    5.2600    5.2700
    5.2800    5.2900    5.3000    5.3100    5.3200    5.3300    5.3400    5.3500
    5.3600    5.3700    5.3800    5.3900    5.4000    5.4100    5.4200    5.4300
    5.4400    5.4500    5.4600    5.4700    5.4800    5.4900    5.5000    5.5100
    5.5200    5.5300    5.5400    5.5500    5.5600    5.5700    5.5800    5.5900
    5.6000    5.6100    5.6200    5.6300    5.6400    5.6500    5.6600    5.6700
    5.6800    5.6900    5.7000    5.7100    5.7200    5.7300    5.7400    5.7500
    5.7600    5.7700    5.7800    5.7900    5.8000    5.8100    5.8200    5.8300
    5.8400    5.8500    5.8600    5.8700    5.8800    5.8900    5.9000    5.9100
    5.9200    5.9300    5.9400    5.9500    5.9600    5.9700    5.9800    5.9900
    6.0000    6.0100
   </PP_R>
   <PP_RAB type="real"  size=" 602" columns="8">
    0.0100    0.0100    0.0100    0.0100    0.0100    0.0100    0.0100    0.0100
    0.0100    0.0100    0.0100    0.0100    0.0100    0.0100    0.0100    0.0100
    0.0100    0.0100    0.0100    0.0100    0.0100    0.0100    0.0100    0.0100
    0.0100    0.0100    0.0100    0.0100    0.0100    0.0100    0.0100    0.0100
    0.0100    0.0100    0.0100    0.0100    0.0100    0.0100    0.0100    0.0100
    0.0100    0.0100    0.0100    0.0100    0.0100    0.0100    0.0100    0.0100
    0.0100    0.0100    0.0100    0.0100    0.0100    0.0100    0.0100    0.0100
    0.0100    0.0100    0.0100    0.0100    0.0100    0.0100    0.0100    0.0100
    0.0100    0.0100    0.0100    0.0100    0.0100    0.0100    0.0100    0.0100
    0.0100    0.0100    0.0100    0.0100    0.0100    0.0100    0.0100    0.0100
    0.0100    0.0100    0.0100    0.0100    0.0100    0.0100    0.0100    0.0100
    0.0100    0.0100    0.0100    0.0100    0.0100    0.0100    0.0100    0.0100
    0.0100    0.0100    0.0100    0.0100    0.0100    0.0100    0.0100    0.0100
    0.0100    0.0100    0.0100    0.0100    0.0100    0.0100    0.0100    0.0100
    0.0100    0.0100    0.0100    0.0100    0.0100    0.0100    0.0100    0.0100
    0.0100    0.0100    0.0100    0.0100    0.0100    0.0100    0.0100    0.0100
    0.0100    0.0100    0.0100    0.0100    0.0100    0.0100    0.0100    0.0100
    0.0100    0.0100    0.0100    0.0100    0.0100    0.0100    0.0100    0.0100
    0.0100    0.0100    0.0100    0.0100    0.0100    0.0100    0.0100    0.0100
    0.0100    0.0100    0.0100    0.0100    0.0100    0.0100    0.0100    0.0100
    0.0100    0.0100    0.0100    0.0100    0.0100    0.0100    0.0100    0.0100
    0.0100    0.0100    0.0100    0.0100    0.0100    0.0100    0.0100    0.0100
    0.0100    0.0100    0.0100    0.0100    0.0100    0.0100    0.0100    0.0100
    0.0100    0.0100    0.0100    0.0100    0.0100    0.0100    0.0100    0.0100
    0.0100    0.0100    0.0100    0.0100    0.0100    0.0100    0.0100    0.0100
    0.0100    0.0100    0.0100    0.0100    0.0100    0.0100    0.0100    0.0100
    0.0100    0.0100    0.0100    0.0100    0.0100    0.0100    0.0100    0.0100
    0.0100    0.0100    0.0100    0.0100    0.0100    0.0100    0.0100    0.0100
    0.0100    0.0100    0.0100    0.0100    0.0100    0.0100    0.0100    0.0100
    0.0100    0.0100    0.0100    0.0100    0.0100    0.0100    0.0100    0.0100
    0.0100    0.0100    0.0100    0.0100    0.0100    0.0100    0.0100    0.0100
    0.0100    0.0100    0.0100    0.0100    0.0100    0.0100    0.0100    0.0100
    0.0100    0.0100    0.0100    0.0100    0.0100    0.0100    0.0100    0.0100
    0.0100    0.0100    0.0100    0.0100    0.0100    0.0100    0.0100    0.0100
    0.0100    0.0100    0.0100    0.0100    0.0100    0.0100    0.0100    0.0100
    0.0100    0.0100    0.0100    0.0100    0.0100    0.0100    0.0100    0.0100
    0.0100    0.0100    0.0100    0.0100    0.0100    0.0100    0.0100    0.0100
    0.0100    0.0100    0.0100    0.0100    0.0100    0.0100    0.0100    0.0100
    0.0100    0.0100    0.0100    0.0100    0.0100    0.0100    0.0100    0.0100
    0.0100    0.0100    0.0100    0.0100    0.0100    0.0100    0.0100    0.0100
    0.0100    0.0100    0.0100    0.0100    0.0100    0.0100    0.0100    0.0100
    0.0100    0.0100    0.0100    0.0100    0.0100    0.0100    0.0100    0.0100
    0.0100    0.0100    0.0100    0.0100    0.0100    0.0100    0.0100    0.0100
    0.0100    0.0100    0.0100    0.0100    0.0100    0.0100    0.0100    0.0100
    0.0100    0.0100    0.0100    0.0100    0.0100    0.0100    0.0100    0.0100
    0.0100    0.0100    0.0100    0.0100    0.0100    0.0100    0.0100    0.0100
    0.0100    0.0100    0.0100    0.0100    0.0100    0.0100    0.0100    0.0100
    0.0100    0.0100    0.0100    0.0100    0.0100    0.0100    0.0100    0.0100
    0.0100    0.0100    0.0100    0.0100    0.0100    0.0100    0.0100    0.0100
    0.0100    0.0100    0.0100    0.0100    0.0100    0.0100    0.0100    0.0100
    0.0100    0.0100    0.0100    0.0100    0.0100    0.0100    0.0100    0.0100
    0.0100    0.0100    0.0100    0.0100    0.0100    0.0100    0.0100    0.0100
    0.0100    0.0100    0.0100    0.0100    0.0100    0.0100    0.0100    0.0100
    0.0100    0.0100    0.0100    0.0100    0.0100    0.0100    0.0100    0.0100
    0.0100    0.0100    0.0100    0.0100    0.0100    0.0100    0.0100    0.0100
    0.0100    0.0100    0.0100    0.0100    0.0100    0.0100    0.0100    0.0100
    0.0100    0.0100    0.0100    0.0100    0.0100    0.0100    0.0100    0.0100
    0.0100    0.0100    0.0100    0.0100    0.0100    0.0100    0.0100    0.0100
    0.0100    0.0100    0.0100    0.0100    0.0100    0.0100    0.0100    0.0100
    0.0100    0.0100    0.0100    0.0100    0.0100    0.0100    0.0100    0.0100
    0.0100    0.0100    0.0100    0.0100    0.0100    0.0100    0.0100    0.0100
    0.0100    0.0100    0.0100    0.0100    0.0100    0.0100    0.0100    0.0100
    0.0100    0.0100    0.0100    0.0100    0.0100    0.0100    0.0100    0.0100
    0.0100    0.0100    0.0100    0.0100    0.0100    0.0100    0.0100    0.0100
    0.0100    0.0100    0.0100    0.0100    0.0100    0.0100    0.0100    0.0100
    0.0100    0.0100    0.0100    0.0100    0.0100    0.0100    0.0100    0.0100
    0.0100    0.0100    0.0100    0.0100    0.0100    0.0100    0.0100    0.0100
    0.0100    0.0100    0.0100    0.0100    0.0100    0.0100    0.0100    0.0100
    0.0100    0.0100    0.0100    0.0100    0.0100    0.0100    0.0100    0.0100
    0.0100    0.0100    0.0100    0.0100    0.0100    0.0100    0.0100    0.0100
    0.0100    0.0100    0.0100    0.0100    0.0100    0.0100    0.0100    0.0100
    0.0100    0.0100    0.0100    0.0100    0.0100    0.0100    0.0100    0.0100
    0.0100    0.0100    0.0100    0.0100    0.0100    0.0100    0.0100    0.0100
    0.0100    0.0100    0.0100    0.0100    0.0100    0.0100    0.0100    0.0100
    0.0100    0.0100    0.0100    0.0100    0.0100    0.0100    0.0100    0.0100
    0.0100    0.0100
   </PP_RAB>
 </PP_MESH>
  <PP_LOCAL type="real"  size=" 602" columns="4">
   -1.6901657208E+01   -1.6900869492E+01   -1.6898506248E+01   -1.6894567570E+01
   -1.6889053553E+01   -1.6881964328E+01   -1.6873300062E+01   -1.6863060963E+01
   -1.6851247274E+01   -1.6837859279E+01   -1.6822897304E+01   -1.6806361723E+01
   -1.6788252966E+01   -1.6768571524E+01   -1.6747317963E+01   -1.6724492941E+01
   -1.6700097225E+01   -1.6674131714E+01   -1.6646597467E+01   -1.6617495732E+01
   -1.6586827988E+01   -1.6554595979E+01   -1.6520801763E+01   -1.6485447760E+01
   -1.6448536803E+01   -1.6410072200E+01   -1.6370057785E+01   -1.6328497983E+01
   -1.6285397872E+01   -1.6240763239E+01   -1.6194600650E+01   -1.6146917499E+01
   -1.6097722070E+01   -1.6047023588E+01   -1.5994832266E+01   -1.5941159345E+01
   -1.5886017133E+01   -1.5829419033E+01   -1.5771379564E+01   -1.5711914376E+01
   -1.5651040257E+01   -1.5588775133E+01   -1.5525138059E+01   -1.5460149203E+01
   -1.5393829829E+01   -1.5326202265E+01   -1.5257289872E+01   -1.5187117007E+01
   -1.5115708977E+01   -1.5043092006E+01   -1.4969293178E+01   -1.4894340387E+01
   -1.4818262290E+01   -1.4741088267E+01   -1.4662848347E+01   -1.4583573186E+01
   -1.4503293995E+01   -1.4422042508E+01   -1.4339850927E+01   -1.4256751886E+01
   -1.4172778400E+01   -1.4087963837E+01   -1.4002341865E+01   -1.3915946429E+01
   -1.3828811714E+01   -1.3740972105E+01   -1.3652462165E+01   -1.3563316606E+01
   -1.3473570254E+01   -1.3383258027E+01   -1.3292414912E+01   -1.3201075935E+01
   -1.3109276139E+01   -1.3017050560E+01   -1.2924434203E+01   -1.2831462019E+01
   -1.2738168881E+01   -1.2644589561E+01   -1.2550758705E+01   -1.2456710808E+01
   -1.2362480192E+01   -1.2268100977E+01   -1.2173607056E+01   -1.2079032070E+01
   -1.1984409378E+01   -1.1889772031E+01   -1.1795152740E+01   -1.1700583849E+01
   -1.1606097306E+01   -1.1511724629E+01   -1.1417496879E+01   -1.1323444626E+01
   -1.1229597920E+01   -1.1135986260E+01   -1.1042638564E+01   -1.0949583140E+01
   -1.0856847676E+01   -1.0764459167E+01   -1.0672443919E+01   -1.0580827531E+01
   -1.0489634865E+01   -1.0398890032E+01   -1.0308616381E+01   -1.0218836523E+01
   -1.0129572188E+01   -1.0040844357E+01   -9.9526732191E+00   -9.8650781853E+00
   -9.7780779574E+00   -9.6916903208E+00   -9.6059323819E+00   -9.5208205263E+00
   -9.4363705044E+00   -9.3525972842E+00   -9.2695152018E+00   -9.1871380202E+00
   -9.1054790080E+00   -9.0245507485E+00   -8.9443653853E+00   -8.8649346519E+00
   -8.7862698502E+00   -8.7083818078E+00   -8.6312810625E+00   -8.5549778879E+00
   -8.4794820992E+00   -8.4048032997E+00   -8.3309508904E+00   -8.2579338571E+00
   -8.1857609620E+00   -8.1144408000E+00   -8.0439814752E+00   -7.9743908492E+00
   -7.9056765695E+00   -7.8378456194E+00   -7.7709047461E+00   -7.7048602419E+00
   -7.6397175878E+00   -7.5754820840E+00   -7.5121579927E+00   -7.4497489064E+00
   -7.3882580338E+00   -7.3276869310E+00   -7.2680370482E+00   -7.2093082103E+00
   -7.1514992725E+00   -7.0946084631E+00   -7.0386316490E+00   -6.9835649705E+00
   -6.9294015447E+00   -6.8761343450E+00   -6.8237542641E+00   -6.7722505459E+00
   -6.7216117381E+00   -6.6718230991E+00   -6.6228706617E+00   -6.5747357358E+00
   -6.5274009486E+00   -6.4808442329E+00   -6.4350446014E+00   -6.3899799858E+00
   -6.3456293951E+00   -6.3019733968E+00   -6.2589932624E+00   -6.2166713734E+00
   -6.1749910199E+00   -6.1339361228E+00   -6.0934916201E+00   -6.0536427914E+00
   -6.0143759130E+00   -5.9756774595E+00   -5.9375347963E+00   -5.8999354498E+00
   -5.8628676769E+00   -5.8263199338E+00   -5.7902812145E+00   -5.7547408037E+00
   -5.7196883105E+00   -5.6851137656E+00   -5.6510072970E+00   -5.6173596129E+00
   -5.5841612841E+00   -5.5514036377E+00   -5.5190776274E+00   -5.4871751334E+00
   -5.4556874863E+00   -5.4246069770E+00   -5.3939254460E+00   -5.3636353931E+00
   -5.3337291890E+00   -5.3041995030E+00   -5.2750392017E+00   -5.2462410976E+00
   -5.2177985106E+00   -5.1897043855E+00   -5.1619523750E+00   -5.1345357664E+00
   -5.1074482843E+00   -5.0806836252E+00   -5.0542355526E+00   -5.0280981610E+00
   -5.0022652181E+00   -4.9767311798E+00   -4.9514901000E+00   -4.9265365118E+00
   -4.9018650426E+00   -4.8774701891E+00   -4.8533470832E+00   -4.8294904663E+00
   -4.8058955403E+00   -4.7825574416E+00   -4.7594713005E+00   -4.7366325940E+00
   -4.7140364868E+00   -4.6916786370E+00   -4.6695546160E+00   -4.6476599607E+00
   -4.6259906214E+00   -4.6045422371E+00   -4.5833108326E+00   -4.5622924651E+00
   -4.5414829961E+00   -4.5208788400E+00   -4.5004761066E+00   -4.4802711059E+00
   -4.4602603978E+00   -4.4404402311E+00   -4.4208073513E+00   -4.4013584197E+00
   -4.3820899385E+00   -4.3629989644E+00   -4.3440822515E+00   -4.3253366924E+00
   -4.3067594994E+00   -4.2883475761E+00   -4.2700981874E+00   -4.2520086945E+00
   -4.2340761611E+00   -4.2162981965E+00   -4.1986722998E+00   -4.1811957334E+00
   -4.1638663882E+00   -4.1466818845E+00   -4.1296397736E+00   -4.1127381080E+00
   -4.0959746713E+00   -4.0793472752E+00   -4.0628541272E+00   -4.0464931759E+00
   -4.0302624607E+00   -4.0141603401E+00   -3.9981849290E+00   -3.9823344605E+00
   -3.9666074378E+00   -3.9510021404E+00   -3.9355169606E+00   -3.9201505398E+00
   -3.9049013170E+00   -3.8897678126E+00   -3.8747487963E+00   -3.8598428591E+00
   -3.8450486213E+00   -3.8303649691E+00   -3.8157906335E+00   -3.8013243133E+00
   -3.7869649949E+00   -3.7727115347E+00   -3.7585626944E+00   -3.7445175422E+00
   -3.7305750280E+00   -3.7167340071E+00   -3.7029935701E+00   -3.6893527468E+00
   -3.6758104967E+00   -3.6623658994E+00   -3.6490180528E+00   -3.6357659983E+00
   -3.6226088093E+00   -3.6095456285E+00   -3.5965755559E+00   -3.5836976687E+00
   -3.5709111331E+00   -3.5582150787E+00   -3.5456086153E+00   -3.5330908982E+00
   -3.5206610777E+00   -3.5083182919E+00   -3.4960616857E+00   -3.4838904202E+00
   -3.4718036477E+00   -3.4598005105E+00   -3.4478801764E+00   -3.4360418034E+00
   -3.4242845334E+00   -3.4126075346E+00   -3.4010099930E+00   -3.3894910780E+00
   -3.3780498912E+00   -3.3666857227E+00   -3.3553977867E+00   -3.3441852484E+00
   -3.3330473457E+00   -3.3219833889E+00   -3.3109926395E+00   -3.3000742997E+00
   -3.2892277139E+00   -3.2784521807E+00   -3.2677469709E+00   -3.2571113583E+00
   -3.2465447228E+00   -3.2360463927E+00   -3.2256156517E+00   -3.2152518649E+00
   -3.2049544192E+00   -3.1947226745E+00   -3.1845559298E+00   -3.1744536275E+00
   -3.1644151640E+00   -3.1544399190E+00   -3.1445272428E+00   -3.1346766099E+00
   -3.1248874396E+00   -3.1151591275E+00   -3.1054910843E+00   -3.0958827986E+00
   -3.0863337175E+00   -3.0768432551E+00   -3.0674108722E+00   -3.0580360736E+00
   -3.0487183324E+00   -3.0394570833E+00   -3.0302518283E+00   -3.0211020896E+00
   -3.0120073653E+00   -3.0029671126E+00   -2.9939808657E+00   -2.9850481663E+00
   -2.9761685362E+00   -2.9673414566E+00   -2.9585664857E+00   -2.9498431867E+00
   -2.9411711038E+00   -2.9325497437E+00   -2.9239786813E+00   -2.9154575026E+00
   -2.9069857733E+00   -2.8985630271E+00   -2.8901888481E+00   -2.8818628471E+00
   -2.8735846102E+00   -2.8653536993E+00   -2.8571697015E+00   -2.8490322535E+00
   -2.8409409606E+00   -2.8328954147E+00   -2.8248951997E+00   -2.8169399791E+00
   -2.8090293769E+00   -2.8011630159E+00   -2.7933404719E+00   -2.7855614357E+00
   -2.7778255487E+00   -2.7701324525E+00   -2.7624817517E+00   -2.7548731231E+00
   -2.7473062385E+00   -2.7397807563E+00   -2.7322963149E+00   -2.7248525686E+00
   -2.7174492216E+00   -2.7100859479E+00   -2.7027624212E+00   -2.6954782701E+00
   -2.6882332300E+00   -2.6810269903E+00   -2.6738592404E+00   -2.6667296425E+00
   -2.6596379007E+00   -2.6525837391E+00   -2.6455668615E+00   -2.6385869681E+00
   -2.6316437259E+00   -2.6247368937E+00   -2.6178661890E+00   -2.6110313294E+00
   -2.6042320085E+00   -2.5974679533E+00   -2.5907389156E+00   -2.5840446260E+00
   -2.5773848152E+00   -2.5707591741E+00   -2.5641674812E+00   -2.5576094829E+00
   -2.5510849222E+00   -2.5445935305E+00   -2.5381350349E+00   -2.5317092212E+00
   -2.5253158444E+00   -2.5189546595E+00   -2.5126253981E+00   -2.5063278262E+00
   -2.5000617287E+00   -2.4938268718E+00   -2.4876230220E+00   -2.4814499136E+00
   -2.4753073446E+00   -2.4691951006E+00   -2.4631129590E+00   -2.4570606967E+00
   -2.4510380534E+00   -2.4450448519E+00   -2.4390808813E+00   -2.4331459289E+00
   -2.4272397789E+00   -2.4213621876E+00   -2.4155129871E+00   -2.4096919748E+00
   -2.4038989478E+00   -2.3981336981E+00   -2.3923959971E+00   -2.3866856836E+00
   -2.3810025643E+00   -2.3753464456E+00   -2.3697171292E+00   -2.3641143962E+00
   -2.3585380936E+00   -2.3529880370E+00   -2.3474640420E+00   -2.3419659213E+00
   -2.3364934608E+00   -2.3310465173E+00   -2.3256249150E+00   -2.3202284778E+00
   -2.3148570300E+00   -2.3095103623E+00   -2.3041883377E+00   -2.2988907902E+00
   -2.2936175519E+00   -2.2883684551E+00   -2.2831433055E+00   -2.2779419593E+00
   -2.2727642645E+00   -2.2676100612E+00   -2.2624791893E+00   -2.2573714711E+00
   -2.2522867513E+00   -2.2472248939E+00   -2.2421857460E+00   -2.2371691551E+00
   -2.2321749616E+00   -2.2272029950E+00   -2.2222531358E+00   -2.2173252383E+00
   -2.2124191570E+00   -2.2075347463E+00   -2.2026718337E+00   -2.1978303006E+00
   -2.1930100135E+00   -2.1882108336E+00   -2.1834326219E+00   -2.1786752271E+00
   -2.1739385061E+00   -2.1692223457E+00   -2.1645266134E+00   -2.1598511769E+00
   -2.1551959037E+00   -2.1505606342E+00   -2.1459452650E+00   -2.1413496734E+00
   -2.1367737331E+00   -2.1322173177E+00   -2.1276802912E+00   -2.1231625185E+00
   -2.1186638995E+00   -2.1141843138E+00   -2.1097236411E+00   -2.1052817609E+00
   -2.1008585325E+00   -2.0964538501E+00   -2.0920676083E+00   -2.0876996921E+00
   -2.0833499869E+00   -2.0790183777E+00   -2.0747047218E+00   -2.0704089369E+00
   -2.0661309140E+00   -2.0618705436E+00   -2.0576277163E+00   -2.0534023165E+00
   -2.0491942196E+00   -2.0450033433E+00   -2.0408295831E+00   -2.0366728348E+00
   -2.0325329938E+00   -2.0284099456E+00   -2.0243035801E+00   -2.0202138154E+00
   -2.0161405519E+00   -2.0120836899E+00   -2.0080431300E+00   -2.0040187602E+00
   -2.0000104807E+00   -1.9960182113E+00   -1.9920418570E+00   -1.9880813229E+00
   -1.9841365141E+00   -1.9802073231E+00   -1.9762936557E+00   -1.9723954353E+00
   -1.9685125714E+00   -1.9646449734E+00   -1.9607925510E+00   -1.9569552026E+00
   -1.9531328354E+00   -1.9493253781E+00   -1.9455327444E+00   -1.9417548480E+00
   -1.9379916027E+00   -1.9342429147E+00   -1.9305086885E+00   -1.9267888596E+00
   -1.9230833457E+00   -1.9193920647E+00   -1.9157149341E+00   -1.9120518695E+00
   -1.9084027691E+00   -1.9047675765E+00   -1.9011462133E+00   -1.8975386012E+00
   -1.8939446615E+00   -1.8903643160E+00   -1.8867974666E+00   -1.8832440530E+00
   -1.8797040048E+00   -1.8761772472E+00   -1.8726637054E+00   -1.8691633048E+00
   -1.8656759594E+00   -1.8622015946E+00   -1.8587401516E+00   -1.8552915591E+00
   -1.8518557458E+00   -1.8484326406E+00   -1.8450221710E+00   -1.8416242451E+00
   -1.8382388168E+00   -1.8348658180E+00   -1.8315051807E+00   -1.8281568371E+00
   -1.8248207191E+00   -1.8214967466E+00   -1.8181848552E+00   -1.8148849903E+00
   -1.8115970871E+00   -1.8083210809E+00   -1.8050569070E+00   -1.8018045004E+00
   -1.7985637757E+00   -1.7953346906E+00   -1.7921171845E+00   -1.7889111954E+00
   -1.7857166616E+00   -1.7825335214E+00   -1.7793617067E+00   -1.7762011477E+00
   -1.7730518006E+00   -1.7699136066E+00   -1.7667865067E+00   -1.7636704421E+00
   -1.7605653538E+00   -1.7574711713E+00   -1.7543878397E+00   -1.7513153119E+00
   -1.7482535319E+00   -1.7452024435E+00   -1.7421619906E+00   -1.7391321170E+00
   -1.7361127517E+00   -1.7331038499E+00   -1.7301053634E+00   -1.7271172389E+00
   -1.7241394227E+00   -1.7211718613E+00   -1.7182145013E+00   -1.7152672725E+00
   -1.7123301367E+00   -1.7094030461E+00   -1.7064859498E+00   -1.7035787966E+00
   -1.7006815356E+00   -1.6977941158E+00   -1.6949164698E+00   -1.6920485618E+00
   -1.6891903461E+00   -1.6863417743E+00   -1.6835027975E+00   -1.6806733673E+00
   -1.6778534348E+00   -1.6750429369E+00   -1.6722418369E+00   -1.6694500927E+00
   -1.6666676580E+00   -1.6638944864E+00
  </PP_LOCAL>
 <PP_NONLOCAL>
   <PP_BETA.1
       type="real"
       size=" 602"
       columns="4"
       index="1"
       angular_momentum="0"
       cutoff_radius_index=" 298"
       cutoff_radius="    2.9700000000E+00" >
    0.0000000000E+00    5.4699174800E-04    1.1103580811E-03    1.7063894134E-03
    2.3512080623E-03    3.0606848128E-03    3.8503562166E-03    4.7353428684E-03
    5.7302689017E-03    6.8491829441E-03    8.1054807698E-03    9.5118298847E-03
    1.1080096276E-02    1.2821273557E-02    1.4745414730E-02    1.6861566788E-02
    1.9177708384E-02    2.1700690746E-02    2.4436182101E-02    2.7388615715E-02
    3.0561141907E-02    3.3955583945E-02    3.7572398359E-02    4.1410639519E-02
    4.5467928888E-02    4.9740428789E-02    5.4222821357E-02    5.8908292060E-02
    6.3788518720E-02    6.8853665494E-02    7.4092382243E-02    7.9491809289E-02
    8.5037587674E-02    9.0713874787E-02    9.6503365746E-02    1.0238732015E-01
    1.0834559466E-01    1.1435668096E-01    1.2039774897E-01    1.2644469663E-01
    1.3247220395E-01    1.3845379292E-01    1.4436189276E-01    1.5016791026E-01
    1.5584230515E-01    1.6135467039E-01    1.6667381714E-01    1.7176786425E-01
    1.7660432950E-01    1.8115023339E-01    1.8537219705E-01    1.8923654498E-01
    1.9270941534E-01    1.9575688060E-01    1.9834503985E-01    2.0044016337E-01
    2.0200878544E-01    2.0301784358E-01    2.0343478461E-01    2.0322770642E-01
    2.0236544660E-01    2.0081775990E-01    1.9855537178E-01    1.9555016214E-01
    1.9177526003E-01    1.8720513357E-01    1.8181576417E-01    1.7558473066E-01
    1.6849131081E-01    1.6051657393E-01    1.5164355875E-01    1.4185730204E-01