<UPF version="2.0.1">
  <PP_INFO>

 This pseudopotential file has been produced using the code
 ONCVPSP  (Optimized Norm-Conservinng Vanderbilt PSeudopotential)
 fully-relativistic version 2.1.1, 03/26/2014 by D. R. Hamann
 The code is available through a link at URL www.mat-simresearch.com.
 Documentation with the package provides a full discription of the
 input data below.


 While it is not required under the terms of the GNU GPL, it is
 suggested that you cite D. R. Hamann, Phys. Rev. B 88, 085117 (2013)
 in any publication using these pseudopotentials.


 Copyright 2015 The Regents of the University of California
 
 This work is licensed under the Creative Commons Attribution-ShareAlike 
 4.0 International License. To view a copy of this license, visit 
 http://creativecommons.org/licenses/by-sa/4.0/ or send a letter to 
 Creative Commons, PO Box 1866, Mountain View, CA 94042, USA.
 
 This pseudopotential is part of the Schlipf-Gygi norm-conserving 
 pseudopotential library. Its construction parameters were tuned to 
 reproduce materials of a training set with very high accuracy and 
 should be suitable as a general purpose pseudopotential to treat a 
 variety of different compounds. For details of the construction and 
 testing of the pseudopotential please refer to:
 
 [insert reference to paper here]
 
 We kindly ask that you include this reference in all publications 
 associated to this pseudopotential.


    <PP_INPUTFILE>
# ATOM AND REFERENCE CONFIGURATION
# atsym  z    nc    nv    iexc   psfile
  As 33.00     6     2     4      upf
#
#   n    l    f        energy (Ha)
    1    0    2.00
    2    0    2.00
    2    1    6.00
    3    0    2.00
    3    1    6.00
    3    2   10.00
    4    0    2.00
    4    1    3.00
#
# PSEUDOPOTENTIAL AND OPTIMIZATION
# lmax
    2
#
#   l,   rc,     ep,   ncon, nbas, qcut
    0     2.94957    -0.53252    5    8     4.03745
    1     2.01365    -0.18765    5    8     6.31532
    2     2.94957     0.08462    5    8     4.23486
#
# LOCAL POTENTIAL
# lloc, lpopt,  rc(5),   dvloc0
    4    5     1.56744        0.00000
#
# VANDERBILT-KLEINMAN-BYLANDER PROJECTORs
# l, nproj, debl
    0    2     0.51483
    1    2     1.24624
    2    2     2.05880
#
# MODEL CORE CHARGE
# icmod, fcfact
    0     0.00000
#
# LOG DERIVATIVE ANALYSIS
# epsh1, epsh2, depsh
   -5.00    3.00    0.02
#
# OUTPUT GRID
# rlmax, drl
    6.00    0.01
#
# TEST CONFIGURATIONS
# ncnf
    0
# nvcnf
#   n    l    f
    </PP_INPUTFILE>
  </PP_INFO>
  <!--                               -->
  <!-- END OF HUMAN READABLE SECTION -->
  <!--                               -->
    <PP_HEADER
       generated="Generated using ONCVPSP code by D. R. Hamann"
       author="Martin Schlipf and Francois Gygi"
       date="180402"
       comment=""
       element="As"
       pseudo_type="NC"
       relativistic="full"
       is_ultrasoft="F"
       is_paw="F"
       is_coulomb="F"
       has_so="T"
       has_wfc="F"
       has_gipaw="F"
       core_correction="F"
       functional="PBE"
       z_valence="    5.00"
       total_psenergy="  -6.16861766481E+00"
       rho_cutoff="   6.01000000000E+00"
       l_max="2"
       l_local="-1"
       mesh_size="   602"
       number_of_wfc="0"
       number_of_proj="10"/>
 <PP_MESH>
   <PP_R type="real"  size=" 602" columns="8">
    0.0000    0.0100    0.0200    0.0300    0.0400    0.0500    0.0600    0.0700
    0.0800    0.0900    0.1000    0.1100    0.1200    0.1300    0.1400    0.1500
    0.1600    0.1700    0.1800    0.1900    0.2000    0.2100    0.2200    0.2300
    0.2400    0.2500    0.2600    0.2700    0.2800    0.2900    0.3000    0.3100
    0.3200    0.3300    0.3400    0.3500    0.3600    0.3700    0.3800    0.3900
    0.4000    0.4100    0.4200    0.4300    0.4400    0.4500    0.4600    0.4700
    0.4800    0.4900    0.5000    0.5100    0.5200    0.5300    0.5400    0.5500
    0.5600    0.5700    0.5800    0.5900    0.6000    0.6100    0.6200    0.6300
    0.6400    0.6500    0.6600    0.6700    0.6800    0.6900    0.7000    0.7100
    0.7200    0.7300    0.7400    0.7500    0.7600    0.7700    0.7800    0.7900
    0.8000    0.8100    0.8200    0.8300    0.8400    0.8500    0.8600    0.8700
    0.8800    0.8900    0.9000    0.9100    0.9200    0.9300    0.9400    0.9500
    0.9600    0.9700    0.9800    0.9900    1.0000    1.0100    1.0200    1.0300
    1.0400    1.0500    1.0600    1.0700    1.0800    1.0900    1.1000    1.1100
    1.1200    1.1300    1.1400    1.1500    1.1600    1.1700    1.1800    1.1900
    1.2000    1.2100    1.2200    1.2300    1.2400    1.2500    1.2600    1.2700
    1.2800    1.2900    1.3000    1.3100    1.3200    1.3300    1.3400    1.3500
    1.3600    1.3700    1.3800    1.3900    1.4000    1.4100    1.4200    1.4300
    1.4400    1.4500    1.4600    1.4700    1.4800    1.4900    1.5000    1.5100
    1.5200    1.5300    1.5400    1.5500    1.5600    1.5700    1.5800    1.5900
    1.6000    1.6100    1.6200    1.6300    1.6400    1.6500    1.6600    1.6700
    1.6800    1.6900    1.7000    1.7100    1.7200    1.7300    1.7400    1.7500
    1.7600    1.7700    1.7800    1.7900    1.8000    1.8100    1.8200    1.8300
    1.8400    1.8500    1.8600    1.8700    1.8800    1.8900    1.9000    1.9100
    1.9200    1.9300    1.9400    1.9500    1.9600    1.9700    1.9800    1.9900
    2.0000    2.0100    2.0200    2.0300    2.0400    2.0500    2.0600    2.0700
    2.0800    2.0900    2.1000    2.1100    2.1200    2.1300    2.1400    2.1500
    2.1600    2.1700    2.1800    2.1900    2.2000    2.2100    2.2200    2.2300
    2.2400    2.2500    2.2600    2.2700    2.2800    2.2900    2.3000    2.3100
    2.3200    2.3300    2.3400    2.3500    2.3600    2.3700    2.3800    2.3900
    2.4000    2.4100    2.4200    2.4300    2.4400    2.4500    2.4600    2.4700
    2.4800    2.4900    2.5000    2.5100    2.5200    2.5300    2.5400    2.5500
    2.5600    2.5700    2.5800    2.5900    2.6000    2.6100    2.6200    2.6300
    2.6400    2.6500    2.6600    2.6700    2.6800    2.6900    2.7000    2.7100
    2.7200    2.7300    2.7400    2.7500    2.7600    2.7700    2.7800    2.7900
    2.8000    2.8100    2.8200    2.8300    2.8400    2.8500    2.8600    2.8700
    2.8800    2.8900    2.9000    2.9100    2.9200    2.9300    2.9400    2.9500
    2.9600    2.9700    2.9800    2.9900    3.0000    3.0100    3.0200    3.0300
    3.0400    3.0500    3.0600    3.0700    3.0800    3.0900    3.1000    3.1100
    3.1200    3.1300    3.1400    3.1500    3.1600    3.1700    3.1800    3.1900
    3.2000    3.2100    3.2200    3.2300    3.2400    3.2500    3.2600    3.2700
    3.2800    3.2900    3.3000    3.3100    3.3200    3.3300    3.3400    3.3500
    3.3600    3.3700    3.3800    3.3900    3.4000    3.4100    3.4200    3.4300
    3.4400    3.4500    3.4600    3.4700    3.4800    3.4900    3.5000    3.5100
    3.5200    3.5300    3.5400    3.5500    3.5600    3.5700    3.5800    3.5900
    3.6000    3.6100    3.6200    3.6300    3.6400    3.6500    3.6600    3.6700
    3.6800    3.6900    3.7000    3.7100    3.7200    3.7300    3.7400    3.7500
    3.7600    3.7700    3.7800    3.7900    3.8000    3.8100    3.8200    3.8300
    3.8400    3.8500    3.8600    3.8700    3.8800    3.8900    3.9000    3.9100
    3.9200    3.9300    3.9400    3.9500    3.9600    3.9700    3.9800    3.9900
    4.0000    4.0100    4.0200    4.0300    4.0400    4.0500    4.0600    4.0700
    4.0800    4.0900    4.1000    4.1100    4.1200    4.1300    4.1400    4.1500
    4.1600    4.1700    4.1800    4.1900    4.2000    4.2100    4.2200    4.2300
    4.2400    4.2500    4.2600    4.2700    4.2800    4.2900    4.3000    4.3100
    4.3200    4.3300    4.3400    4.3500    4.3600    4.3700    4.3800    4.3900
    4.4000    4.4100    4.4200    4.4300    4.4400    4.4500    4.4600    4.4700
    4.4800    4.4900    4.5000    4.5100    4.5200    4.5300    4.5400    4.5500
    4.5600    4.5700    4.5800    4.5900    4.6000    4.6100    4.6200    4.6300
    4.6400    4.6500    4.6600    4.6700    4.6800    4.6900    4.7000    4.7100
    4.7200    4.7300    4.7400    4.7500    4.7600    4.7700    4.7800    4.7900
    4.8000    4.8100    4.8200    4.8300    4.8400    4.8500    4.8600    4.8700
    4.8800    4.8900    4.9000    4.9100    4.9200    4.9300    4.9400    4.9500
    4.9600    4.9700    4.9800    4.9900    5.0000    5.0100    5.0200    5.0300
    5.0400    5.0500    5.0600    5.0700    5.0800    5.0900    5.1000    5.1100
    5.1200    5.1300    5.1400    5.1500    5.1600    5.1700    5.1800    5.1900
    5.2000    5.2100    5.2200    5.2300    5.2400    5.2500    5.2600    5.2700
    5.2800    5.2900    5.3000    5.3100    5.3200    5.3300    5.3400    5.3500
    5.3600    5.3700    5.3800    5.3900    5.4000    5.4100    5.4200    5.4300
    5.4400    5.4500    5.4600    5.4700    5.4800    5.4900    5.5000    5.5100
    5.5200    5.5300    5.5400    5.5500    5.5600    5.5700    5.5800    5.5900
    5.6000    5.6100    5.6200    5.6300    5.6400    5.6500    5.6600    5.6700
    5.6800    5.6900    5.7000    5.7100    5.7200    5.7300    5.7400    5.7500
    5.7600    5.7700    5.7800    5.7900    5.8000    5.8100    5.8200    5.8300
    5.8400    5.8500    5.8600    5.8700    5.8800    5.8900    5.9000    5.9100
    5.9200    5.9300    5.9400    5.9500    5.9600    5.9700    5.9800    5.9900
    6.0000    6.0100
   </PP_R>
   <PP_RAB type="real"  size=" 602" columns="8">
    0.0100    0.0100    0.0100    0.0100    0.0100    0.0100    0.0100    0.0100
    0.0100    0.0100    0.0100    0.0100    0.0100    0.0100    0.0100    0.0100
    0.0100    0.0100    0.0100    0.0100    0.0100    0.0100    0.0100    0.0100
    0.0100    0.0100    0.0100    0.0100    0.0100    0.0100    0.0100    0.0100
    0.0100    0.0100    0.0100    0.0100    0.0100    0.0100    0.0100    0.0100
    0.0100    0.0100    0.0100    0.0100    0.0100    0.0100    0.0100    0.0100
    0.0100    0.0100    0.0100    0.0100    0.0100    0.0100    0.0100    0.0100
    0.0100    0.0100    0.0100    0.0100    0.0100    0.0100    0.0100    0.0100
    0.0100    0.0100    0.0100    0.0100    0.0100    0.0100    0.0100    0.0100
    0.0100    0.0100    0.0100    0.0100    0.0100    0.0100    0.0100    0.0100
    0.0100    0.0100    0.0100    0.0100    0.0100    0.0100    0.0100    0.0100
    0.0100    0.0100    0.0100    0.0100    0.0100    0.0100    0.0100    0.0100
    0.0100    0.0100    0.0100    0.0100    0.0100    0.0100    0.0100    0.0100
    0.0100    0.0100    0.0100    0.0100    0.0100    0.0100    0.0100    0.0100
    0.0100    0.0100    0.0100    0.0100    0.0100    0.0100    0.0100    0.0100
    0.0100    0.0100    0.0100    0.0100    0.0100    0.0100    0.0100    0.0100
    0.0100    0.0100    0.0100    0.0100    0.0100    0.0100    0.0100    0.0100
    0.0100    0.0100    0.0100    0.0100    0.0100    0.0100    0.0100    0.0100
    0.0100    0.0100    0.0100    0.0100    0.0100    0.0100    0.0100    0.0100
    0.0100    0.0100    0.0100    0.0100    0.0100    0.0100    0.0100    0.0100
    0.0100    0.0100    0.0100    0.0100    0.0100    0.0100    0.0100    0.0100
    0.0100    0.0100    0.0100    0.0100    0.0100    0.0100    0.0100    0.0100
    0.0100    0.0100    0.0100    0.0100    0.0100    0.0100    0.0100    0.0100
    0.0100    0.0100    0.0100    0.0100    0.0100    0.0100    0.0100    0.0100
    0.0100    0.0100    0.0100    0.0100    0.0100    0.0100    0.0100    0.0100
    0.0100    0.0100    0.0100    0.0100    0.0100    0.0100    0.0100    0.0100
    0.0100    0.0100    0.0100    0.0100    0.0100    0.0100    0.0100    0.0100
    0.0100    0.0100    0.0100    0.0100    0.0100    0.0100    0.0100    0.0100
    0.0100    0.0100    0.0100    0.0100    0.0100    0.0100    0.0100    0.0100
    0.0100    0.0100    0.0100    0.0100    0.0100    0.0100    0.0100    0.0100
    0.0100    0.0100    0.0100    0.0100    0.0100    0.0100    0.0100    0.0100
    0.0100    0.0100    0.0100    0.0100    0.0100    0.0100    0.0100    0.0100
    0.0100    0.0100    0.0100    0.0100    0.0100    0.0100    0.0100    0.0100
    0.0100    0.0100    0.0100    0.0100    0.0100    0.0100    0.0100    0.0100
    0.0100    0.0100    0.0100    0.0100    0.0100    0.0100    0.0100    0.0100
    0.0100    0.0100    0.0100    0.0100    0.0100    0.0100    0.0100    0.0100
    0.0100    0.0100    0.0100    0.0100    0.0100    0.0100    0.0100    0.0100
    0.0100    0.0100    0.0100    0.0100    0.0100    0.0100    0.0100    0.0100
    0.0100    0.0100    0.0100    0.0100    0.0100    0.0100    0.0100    0.0100
    0.0100    0.0100    0.0100    0.0100    0.0100    0.0100    0.0100    0.0100
    0.0100    0.0100    0.0100    0.0100    0.0100    0.0100    0.0100    0.0100
    0.0100    0.0100    0.0100    0.0100    0.0100    0.0100    0.0100    0.0100
    0.0100    0.0100    0.0100    0.0100    0.0100    0.0100    0.0100    0.0100
    0.0100    0.0100    0.0100    0.0100    0.0100    0.0100    0.0100    0.0100
    0.0100    0.0100    0.0100    0.0100    0.0100    0.0100    0.0100    0.0100
    0.0100    0.0100    0.0100    0.0100    0.0100    0.0100    0.0100    0.0100
    0.0100    0.0100    0.0100    0.0100    0.0100    0.0100    0.0100    0.0100
    0.0100    0.0100    0.0100    0.0100    0.0100    0.0100    0.0100    0.0100
    0.0100    0.0100    0.0100    0.0100    0.0100    0.0100    0.0100    0.0100
    0.0100    0.0100    0.0100    0.0100    0.0100    0.0100    0.0100    0.0100
    0.0100    0.0100    0.0100    0.0100    0.0100    0.0100    0.0100    0.0100
    0.0100    0.0100    0.0100    0.0100    0.0100    0.0100    0.0100    0.0100
    0.0100    0.0100    0.0100    0.0100    0.0100    0.0100    0.0100    0.0100
    0.0100    0.0100    0.0100    0.0100    0.0100    0.0100    0.0100    0.0100
    0.0100    0.0100    0.0100    0.0100    0.0100    0.0100    0.0100    0.0100
    0.0100    0.0100    0.0100    0.0100    0.0100    0.0100    0.0100    0.0100
    0.0100    0.0100    0.0100    0.0100    0.0100    0.0100    0.0100    0.0100
    0.0100    0.0100    0.0100    0.0100    0.0100    0.0100    0.0100    0.0100
    0.0100    0.0100    0.0100    0.0100    0.0100    0.0100    0.0100    0.0100
    0.0100    0.0100    0.0100    0.0100    0.0100    0.0100    0.0100    0.0100
    0.0100    0.0100    0.0100    0.0100    0.0100    0.0100    0.0100    0.0100
    0.0100    0.0100    0.0100    0.0100    0.0100    0.0100    0.0100    0.0100
    0.0100    0.0100    0.0100    0.0100    0.0100    0.0100    0.0100    0.0100
    0.0100    0.0100    0.0100    0.0100    0.0100    0.0100    0.0100    0.0100
    0.0100    0.0100    0.0100    0.0100    0.0100    0.0100    0.0100    0.0100
    0.0100    0.0100    0.0100    0.0100    0.0100    0.0100    0.0100    0.0100
    0.0100    0.0100    0.0100    0.0100    0.0100    0.0100    0.0100    0.0100
    0.0100    0.0100    0.0100    0.0100    0.0100    0.0100    0.0100    0.0100
    0.0100    0.0100    0.0100    0.0100    0.0100    0.0100    0.0100    0.0100
    0.0100    0.0100    0.0100    0.0100    0.0100    0.0100    0.0100    0.0100
    0.0100    0.0100    0.0100    0.0100    0.0100    0.0100    0.0100    0.0100
    0.0100    0.0100    0.0100    0.0100    0.0100    0.0100    0.0100    0.0100
    0.0100    0.0100    0.0100    0.0100    0.0100    0.0100    0.0100    0.0100
    0.0100    0.0100    0.0100    0.0100    0.0100    0.0100    0.0100    0.0100
    0.0100    0.0100    0.0100    0.0100    0.0100    0.0100    0.0100    0.0100
    0.0100    0.0100
   </PP_RAB>
 </PP_MESH>
  <PP_LOCAL type="real"  size=" 602" columns="4">
   -1.6901692608E+01   -1.6900905646E+01   -1.6898544649E+01   -1.6894609725E+01
   -1.6889100981E+01   -1.6882018567E+01   -1.6873362681E+01   -1.6863133570E+01
   -1.6851331533E+01   -1.6837956924E+01   -1.6823010161E+01   -1.6806491731E+01
   -1.6788402199E+01   -1.6768742218E+01   -1.6747512540E+01   -1.6724714036E+01
   -1.6700347707E+01   -1.6674414710E+01   -1.6646916378E+01   -1.6617854249E+01
   -1.6587230096E+01   -1.6555045959E+01   -1.6521304184E+01   -1.6486007464E+01
   -1.6449158882E+01   -1.6410761956E+01   -1.6370820692E+01   -1.6329339635E+01
   -1.6286323916E+01   -1.6241779315E+01   -1.6195712307E+01   -1.6148130120E+01
   -1.6099040783E+01   -1.6048453182E+01   -1.5996377100E+01   -1.5942823262E+01
   -1.5887803378E+01   -1.5831330171E+01   -1.5773417404E+01   -1.5714079912E+01
   -1.5653333605E+01   -1.5591195487E+01   -1.5527683652E+01   -1.5462817286E+01
   -1.5396616654E+01   -1.5329103085E+01   -1.5260298953E+01   -1.5190227648E+01
   -1.5118913543E+01   -1.5046381971E+01   -1.4972659176E+01   -1.4897772277E+01
   -1.4821749223E+01   -1.4744618758E+01   -1.4666410362E+01   -1.4587154224E+01
   -1.4506881178E+01   -1.4425622677E+01   -1.4343410733E+01   -1.4260277888E+01
   -1.4176257158E+01   -1.4091382012E+01   -1.4005686310E+01   -1.3919204286E+01
   -1.3831970499E+01   -1.3744019800E+01   -1.3655387301E+01   -1.3566108341E+01
   -1.3476218452E+01   -1.3385753325E+01   -1.3294748788E+01   -1.3203240763E+01
   -1.3111265244E+01   -1.3018858262E+01   -1.2926055857E+01   -1.2832894043E+01
   -1.2739408780E+01   -1.2645635938E+01   -1.2551611271E+01   -1.2457370375E+01
   -1.2362948662E+01   -1.2268381321E+01   -1.2173703284E+01   -1.2078949192E+01
   -1.1984153357E+01   -1.1889349727E+01   -1.1794571846E+01   -1.1699852823E+01
   -1.1605225289E+01   -1.1510721367E+01   -1.1416372627E+01   -1.1322210060E+01
   -1.1228264038E+01   -1.1134564281E+01   -1.1041139829E+01   -1.0948019007E+01
   -1.0855229427E+01   -1.0762797899E+01   -1.0670750453E+01   -1.0579112318E+01
   -1.0487907903E+01   -1.0397160785E+01   -1.0306893708E+01   -1.0217128618E+01
   -1.0127886517E+01   -1.0039187621E+01   -9.9510513229E+00   -9.8634962116E+00
   -9.7765401582E+00   -9.6902001180E+00   -9.6044923815E+00   -9.5194325422E+00
   -9.4350355858E+00   -9.3513157650E+00   -9.2682867546E+00   -9.1859617139E+00
   -9.1043533609E+00   -9.0234738186E+00   -8.9433348395E+00   -8.8639478333E+00
   -8.7853238541E+00   -8.7074735751E+00   -8.6304074398E+00   -8.5541356823E+00
   -8.4786681748E+00   -8.4040146174E+00   -8.3301845487E+00   -8.2571871598E+00
   -8.1850314400E+00   -8.1137262343E+00   -8.0432799292E+00   -7.9737006691E+00
   -7.9049963934E+00   -7.8371743694E+00   -7.7702416195E+00   -7.7042046995E+00
   -7.6390693208E+00   -7.5748410069E+00   -7.5115242002E+00   -7.4491226475E+00
   -7.3876396951E+00   -7.3270769803E+00   -7.2674360319E+00   -7.2087167053E+00
   -7.1509178675E+00   -7.0940377406E+00   -7.0380721492E+00   -6.9830171933E+00
   -6.9288659166E+00   -6.8756112217E+00   -6.8232439154E+00   -6.7717531558E+00
   -6.7211273999E+00   -6.6713518215E+00   -6.6224123649E+00   -6.5742902687E+00
   -6.5269680834E+00   -6.4804236879E+00   -6.4346360384E+00   -6.3895830318E+00
   -6.3452436451E+00   -6.3015984306E+00   -6.2586286525E+00   -6.2163166961E+00
   -6.1746458659E+00   -6.1336001041E+00   -6.0931643797E+00   -6.0533240079E+00
   -6.0140653072E+00   -5.9753747978E+00   -5.9372398929E+00   -5.8996481693E+00
   -5.8625879324E+00   -5.8260476885E+00   -5.7900164766E+00   -5.7544836257E+00
   -5.7194387839E+00   -5.6848720157E+00   -5.6507734800E+00   -5.6171339049E+00
   -5.5839438832E+00   -5.5511947458E+00   -5.5188774591E+00   -5.4869838906E+00
   -5.4555053737E+00   -5.4244341744E+00   -5.3937621205E+00   -5.3634816820E+00
   -5.3335852023E+00   -5.3040653176E+00   -5.2749148564E+00   -5.2461265952E+00
   -5.2176938119E+00   -5.1896094113E+00   -5.1618670070E+00   -5.1344598444E+00
   -5.1073816135E+00   -5.0806259747E+00   -5.0541866587E+00   -5.0280577386E+00
   -5.0022329485E+00   -4.9767067381E+00   -4.9514731417E+00   -4.9265266855E+00
   -4.9018619938E+00   -4.8774735564E+00   -4.8533565061E+00   -4.8295055809E+00
   -4.8059159835E+00   -4.7825828507E+00   -4.7595013129E+00   -4.7366668531E+00
   -4.7140746378E+00   -4.6917203319E+00   -4.6695995129E+00   -4.6477077237E+00
   -4.6260409243E+00   -4.6045947609E+00   -4.5833652685E+00   -4.5623485151E+00
   -4.5415403711E+00   -4.5209372640E+00   -4.5005353146E+00   -4.4803308448E+00
   -4.4603204277E+00   -4.4405003242E+00   -4.4208672931E+00   -4.4014180090E+00
   -4.3821489871E+00   -4.3630572975E+00   -4.3441397078E+00   -4.3253931237E+00
   -4.3068147705E+00   -4.2884015651E+00   -4.2701507850E+00   -4.2520598034E+00
   -4.2341256974E+00   -4.2163460874E+00   -4.1987184836E+00   -4.1812401612E+00
   -4.1639090202E+00   -4.1467226915E+00   -4.1296787374E+00   -4.1127752181E+00
   -4.0960099265E+00   -4.0793806838E+00   -4.0628857034E+00   -4.0465229422E+00
   -4.0302904467E+00   -4.0141865800E+00   -3.9982094636E+00   -3.9823573363E+00
   -3.9666287039E+00   -3.9510218509E+00   -3.9355351738E+00   -3.9201673151E+00
   -3.9049167171E+00   -3.8897819028E+00   -3.8747616417E+00   -3.8598545264E+00
   -3.8450591787E+00   -3.8303744833E+00   -3.8157991713E+00   -3.8013319420E+00
   -3.7869717792E+00   -3.7727175382E+00   -3.7585679804E+00   -3.7445221707E+00
   -3.7305790568E+00   -3.7167374927E+00   -3.7029965656E+00   -3.6893553028E+00
   -3.6758126610E+00   -3.6623677171E+00   -3.6490195655E+00   -3.6357672451E+00
   -3.6226098259E+00   -3.6095464478E+00   -3.5965762077E+00   -3.5836981796E+00
   -3.5709115272E+00   -3.5582153776E+00   -3.5456088369E+00   -3.5330910588E+00
   -3.5206611912E+00   -3.5083183697E+00   -3.4960617368E+00   -3.4838904527E+00
   -3.4718036680E+00   -3.4598005222E+00   -3.4478801831E+00   -3.4360418078E+00
   -3.4242845367E+00   -3.4126075372E+00   -3.4010099958E+00   -3.3894910812E+00
   -3.3780498942E+00   -3.3666857255E+00   -3.3553977894E+00   -3.3441852508E+00
   -3.3330473480E+00   -3.3219833911E+00   -3.3109926415E+00   -3.3000743017E+00
   -3.2892277159E+00   -3.2784521827E+00   -3.2677469730E+00   -3.2571113603E+00
   -3.2465447248E+00   -3.2360463947E+00   -3.2256156536E+00   -3.2152518668E+00
   -3.2049544211E+00   -3.1947226764E+00   -3.1845559316E+00   -3.1744536293E+00
   -3.1644151658E+00   -3.1544399207E+00   -3.1445272446E+00   -3.1346766116E+00
   -3.1248874413E+00   -3.1151591292E+00   -3.1054910860E+00   -3.0958828003E+00
   -3.0863337192E+00   -3.0768432567E+00   -3.0674108738E+00   -3.0580360752E+00
   -3.0487183340E+00   -3.0394570848E+00   -3.0302518298E+00   -3.0211020912E+00
   -3.0120073668E+00   -3.0029671141E+00   -2.9939808672E+00   -2.9850481678E+00
   -2.9761685376E+00   -2.9673414580E+00   -2.9585664871E+00   -2.9498431881E+00
   -2.9411711052E+00   -2.9325497451E+00   -2.9239786827E+00   -2.9154575039E+00
   -2.9069857746E+00   -2.8985630284E+00   -2.8901888494E+00   -2.8818628484E+00
   -2.8735846114E+00   -2.8653537005E+00   -2.8571697028E+00   -2.8490322547E+00
   -2.8409409617E+00   -2.8328954159E+00   -2.8248952009E+00   -2.8169399803E+00
   -2.8090293780E+00   -2.8011630171E+00   -2.7933404730E+00   -2.7855614368E+00
   -2.7778255498E+00   -2.7701324536E+00   -2.7624817528E+00   -2.7548731241E+00
   -2.7473062395E+00   -2.7397807573E+00   -2.7322963159E+00   -2.7248525696E+00
   -2.7174492225E+00   -2.7100859488E+00   -2.7027624222E+00   -2.6954782711E+00
   -2.6882332310E+00   -2.6810269912E+00   -2.6738592413E+00   -2.6667296434E+00
   -2.6596379015E+00   -2.6525837399E+00   -2.6455668624E+00   -2.6385869690E+00
   -2.6316437268E+00   -2.6247368945E+00   -2.6178661898E+00   -2.6110313302E+00
   -2.6042320093E+00   -2.5974679541E+00   -2.5907389163E+00   -2.5840446268E+00
   -2.5773848160E+00   -2.5707591748E+00   -2.5641674819E+00   -2.5576094836E+00
   -2.5510849229E+00   -2.5445935312E+00   -2.5381350356E+00   -2.5317092219E+00
   -2.5253158451E+00   -2.5189546602E+00   -2.5126253988E+00   -2.5063278269E+00
   -2.5000617293E+00   -2.4938268725E+00   -2.4876230226E+00   -2.4814499142E+00
   -2.4753073452E+00   -2.4691951012E+00   -2.4631129596E+00   -2.4570606973E+00
   -2.4510380539E+00   -2.4450448525E+00   -2.4390808819E+00   -2.4331459294E+00
   -2.4272397795E+00   -2.4213621881E+00   -2.4155129877E+00   -2.4096919753E+00
   -2.4038989483E+00   -2.3981336986E+00   -2.3923959976E+00   -2.3866856841E+00
   -2.3810025647E+00   -2.3753464461E+00   -2.3697171297E+00   -2.3641143966E+00
   -2.3585380941E+00   -2.3529880375E+00   -2.3474640424E+00   -2.3419659218E+00
   -2.3364934612E+00   -2.3310465178E+00   -2.3256249154E+00   -2.3202284783E+00
   -2.3148570304E+00   -2.3095103627E+00   -2.3041883381E+00   -2.2988907906E+00
   -2.2936175523E+00   -2.2883684555E+00   -2.2831433059E+00   -2.2779419597E+00
   -2.2727642649E+00   -2.2676100616E+00   -2.2624791897E+00   -2.2573714714E+00
   -2.2522867517E+00   -2.2472248942E+00   -2.2421857464E+00   -2.2371691555E+00
   -2.2321749619E+00   -2.2272029953E+00   -2.2222531361E+00   -2.2173252386E+00
   -2.2124191573E+00   -2.2075347466E+00   -2.2026718341E+00   -2.1978303010E+00
   -2.1930100139E+00   -2.1882108339E+00   -2.1834326222E+00   -2.1786752274E+00
   -2.1739385064E+00   -2.1692223460E+00   -2.1645266138E+00   -2.1598511773E+00
   -2.1551959041E+00   -2.1505606345E+00   -2.1459452653E+00   -2.1413496737E+00
   -2.1367737334E+00   -2.1322173180E+00   -2.1276802915E+00   -2.1231625188E+00
   -2.1186638998E+00   -2.1141843141E+00   -2.1097236414E+00   -2.1052817612E+00
   -2.1008585328E+00   -2.0964538504E+00   -2.0920676086E+00   -2.0876996924E+00
   -2.0833499872E+00   -2.0790183780E+00   -2.0747047221E+00   -2.0704089372E+00
   -2.0661309143E+00   -2.0618705439E+00   -2.0576277166E+00   -2.0534023168E+00
   -2.0491942199E+00   -2.0450033435E+00   -2.0408295834E+00   -2.0366728351E+00
   -2.0325329941E+00   -2.0284099458E+00   -2.0243035804E+00   -2.0202138157E+00
   -2.0161405521E+00   -2.0120836902E+00   -2.0080431303E+00   -2.0040187605E+00
   -2.0000104810E+00   -1.9960182115E+00   -1.9920418572E+00   -1.9880813231E+00
   -1.9841365144E+00   -1.9802073234E+00   -1.9762936560E+00   -1.9723954356E+00
   -1.9685125716E+00   -1.9646449737E+00   -1.9607925512E+00   -1.9569552028E+00
   -1.9531328356E+00   -1.9493253783E+00   -1.9455327446E+00   -1.9417548483E+00
   -1.9379916029E+00   -1.9342429149E+00   -1.9305086887E+00   -1.9267888598E+00
   -1.9230833460E+00   -1.9193920649E+00   -1.9157149343E+00   -1.9120518697E+00
   -1.9084027693E+00   -1.9047675767E+00   -1.9011462136E+00   -1.8975386014E+00
   -1.8939446617E+00   -1.8903643162E+00   -1.8867974668E+00   -1.8832440532E+00
   -1.8797040050E+00   -1.8761772474E+00   -1.8726637056E+00   -1.8691633050E+00
   -1.8656759596E+00   -1.8622015948E+00   -1.8587401518E+00   -1.8552915593E+00
   -1.8518557460E+00   -1.8484326407E+00   -1.8450221711E+00   -1.8416242453E+00
   -1.8382388170E+00   -1.8348658182E+00   -1.8315051809E+00   -1.8281568373E+00
   -1.8248207193E+00   -1.8214967468E+00   -1.8181848553E+00   -1.8148849904E+00
   -1.8115970873E+00   -1.8083210811E+00   -1.8050569071E+00   -1.8018045005E+00
   -1.7985637758E+00   -1.7953346908E+00   -1.7921171846E+00   -1.7889111956E+00
   -1.7857166618E+00   -1.7825335216E+00   -1.7793617068E+00   -1.7762011478E+00
   -1.7730518008E+00   -1.7699136068E+00   -1.7667865069E+00   -1.7636704422E+00
   -1.7605653539E+00   -1.7574711715E+00   -1.7543878398E+00   -1.7513153120E+00
   -1.7482535320E+00   -1.7452024436E+00   -1.7421619907E+00   -1.7391321171E+00
   -1.7361127518E+00   -1.7331038500E+00   -1.7301053636E+00   -1.7271172390E+00
   -1.7241394228E+00   -1.7211718614E+00   -1.7182145014E+00   -1.7152672726E+00
   -1.7123301368E+00   -1.7094030462E+00   -1.7064859499E+00   -1.7035787967E+00
   -1.7006815357E+00   -1.6977941159E+00   -1.6949164699E+00   -1.6920485619E+00
   -1.6891903462E+00   -1.6863417744E+00   -1.6835027976E+00   -1.6806733674E+00
   -1.6778534349E+00   -1.6750429369E+00   -1.6722418369E+00   -1.6694500928E+00
   -1.6666676581E+00   -1.6638944865E+00
  </PP_LOCAL>
 <PP_NONLOCAL>
   <PP_BETA.1
       type="real"
       size=" 602"
       columns="4"
       index="1"
       angular_momentum="0"
       cutoff_radius_index=" 298"
       cutoff_radius="    2.9700000000E+00" >
    0.0000000000E+00    7.4182124235E-04    1.4996181487E-03    2.2892830359E-03
    3.1265417702E-03    4.0268711513E-03    5.0054170262E-03    6.0769133752E-03
    7.2556026095E-03    8.5551573202E-03    9.9886037136E-03    1.1568246969E-02
    1.3305598746E-02    1.5211307073E-02    1.7295088843E-02    1.9565665122E-02
    2.2030699511E-02    2.4696739740E-02    2.7569162734E-02    3.0652123294E-02
    3.3948506702E-02    3.7459885212E-02    4.1186478904E-02    4.5127120795E-02
    4.9279226583E-02    5.3638768888E-02    5.8200256631E-02    6.2956718965E-02
    6.7899694660E-02    7.3019226423E-02    7.8303860562E-02    8.3740652015E-02
    8.9315174819E-02    9.5011537945E-02    1.0081240681E-01    1.0669903017E-01
    1.1265127271E-01    1.1864765310E-01    1.2466538717E-01    1.3068043763E-01
    1.3666756804E-01    1.4260040258E-01    1.4845149112E-01    1.5419237933E-01
    1.5979368381E-01    1.6522517205E-01    1.7045584709E-01    1.7545403656E-01
    1.8018748357E-01    1.8462345000E-01    1.8872881384E-01    1.9247017150E-01
    1.9581394748E-01    1.9872651430E-01    2.0117428432E-01    2.0312385348E-01
    2.0454209347E-01    2.0539629019E-01    2.0565424906E-01    2.0528443585E-01
    2.0425606474E-01    2.0253927451E-01    2.0010518171E-01    1.9692606301E-01
    1.9297544920E-01    1.8822821435E-01    1.8266074867E-01    1.7625104192E-01
    1.6897878393E-01    1.6082545643E-01    1.5177450931E-01    1.4181138883E-01
    1.3092364996E-01    1.1910104621E-01    1.0633560112E-01    9.2621713344E-02
    7.7956216221E-02    6.2338426452E-02    4.5770209248E-02    2.8256027379E-02
    9.8029823761E-03   -9.5791523747E-03   -2.9877906920E-02   -5.1078098638E-02
   -7.3161824956E-02   -9.6108465072E-02   -1.1989469084E-01   -1.4449448693E-01
   -1.6987918043E-01   -1.9601747983E-01   -2.2287552357E-01   -2.5041693804E-01