<UPF version="2.0.1">
  <PP_INFO>

 This pseudopotential file has been produced using the code
 ONCVPSP  (Optimized Norm-Conservinng Vanderbilt PSeudopotential)
 scalar-relativistic version 2.1.1, 03/26/2014 by D. R. Hamann
 The code is available through a link at URL www.mat-simresearch.com.
 Documentation with the package provides a full discription of the
 input data below.


 While it is not required under the terms of the GNU GPL, it is
 suggested that you cite D. R. Hamann, Phys. Rev. B 88, 085117 (2013)
 in any publication using these pseudopotentials.


 Copyright 2015 The Regents of the University of California
 
 This work is licensed under the Creative Commons Attribution-ShareAlike 
 4.0 International License. To view a copy of this license, visit 
 http://creativecommons.org/licenses/by-sa/4.0/ or send a letter to 
 Creative Commons, PO Box 1866, Mountain View, CA 94042, USA.
 
 This pseudopotential is part of the Schlipf-Gygi norm-conserving 
 pseudopotential library. Its construction parameters were tuned to 
 reproduce materials of a training set with very high accuracy and 
 should be suitable as a general purpose pseudopotential to treat a 
 variety of different compounds. For details of the construction and 
 testing of the pseudopotential please refer to:
 
 [insert reference to paper here]
 
 We kindly ask that you include this reference in all publications 
 associated to this pseudopotential.


    <PP_INPUTFILE>
# ATOM AND REFERENCE CONFIGURATION
# atsym  z    nc    nv    iexc   psfile
  Bi 83.00    12     3     4      upf
#
#   n    l    f        energy (Ha)
    1    0    2.00
    2    0    2.00
    2    1    6.00
    3    0    2.00
    3    1    6.00
    3    2   10.00
    4    0    2.00
    4    1    6.00
    4    2   10.00
    4    3   14.00
    5    0    2.00
    5    1    6.00
    5    2   10.00
    6    0    2.00
    6    1    3.00
#
# PSEUDOPOTENTIAL AND OPTIMIZATION
# lmax
    3
#
#   l,   rc,     ep,   ncon, nbas, qcut
    0   3.59885  -0.53202    5    8   3.57648
    1   3.68574  -0.16798    5    8   3.63328
    2   3.00923  -0.99525    5    8   6.40958
    3   3.35027   0.23560    5    8   5.75105
#
# LOCAL POTENTIAL
# lloc, lpopt,  rc(5),   dvloc0
    4    5   2.76817      0.00000
#
# VANDERBILT-KLEINMAN-BYLANDER PROJECTORs
# l, nproj, debl
    0    2   1.12594
    1    2   1.11002
    2    2   1.38825
    3    2   1.25529
#
# MODEL CORE CHARGE
# icmod, fcfact
    0   0.00000
#
# LOG DERIVATIVE ANALYSIS
# epsh1, epsh2, depsh
   -5.00    3.00    0.02
#
# OUTPUT GRID
# rlmax, drl
    6.00    0.01
#
# TEST CONFIGURATIONS
# ncnf
    0
# nvcnf
#   n    l    f
    </PP_INPUTFILE>
  </PP_INFO>
  <!--                               -->
  <!-- END OF HUMAN READABLE SECTION -->
  <!--                               -->
    <PP_HEADER
       generated="Generated using ONCVPSP code by D. R. Hamann"
       author="Martin Schlipf and Francois Gygi"
       date="150105"
       comment=""
       element="Bi"
       pseudo_type="NC"
       relativistic="scalar"
       is_ultrasoft="F"
       is_paw="F"
       is_coulomb="F"
       has_so="F"
       has_wfc="F"
       has_gipaw="F"
       core_correction="F"
       functional="PBE"
       z_valence="   15.00"
       total_psenergy="  -6.78126421357E+01"
       rho_cutoff="   6.01000000000E+00"
       l_max="3"
       l_local="-1"
       mesh_size="   602"
       number_of_wfc="0"
       number_of_proj="8"/>
 <PP_MESH>
   <PP_R type="real"  size=" 602" columns="8">
    0.0000    0.0100    0.0200    0.0300    0.0400    0.0500    0.0600    0.0700
    0.0800    0.0900    0.1000    0.1100    0.1200    0.1300    0.1400    0.1500
    0.1600    0.1700    0.1800    0.1900    0.2000    0.2100    0.2200    0.2300
    0.2400    0.2500    0.2600    0.2700    0.2800    0.2900    0.3000    0.3100
    0.3200    0.3300    0.3400    0.3500    0.3600    0.3700    0.3800    0.3900
    0.4000    0.4100    0.4200    0.4300    0.4400    0.4500    0.4600    0.4700
    0.4800    0.4900    0.5000    0.5100    0.5200    0.5300    0.5400    0.5500
    0.5600    0.5700    0.5800    0.5900    0.6000    0.6100    0.6200    0.6300
    0.6400    0.6500    0.6600    0.6700    0.6800    0.6900    0.7000    0.7100
    0.7200    0.7300    0.7400    0.7500    0.7600    0.7700    0.7800    0.7900
    0.8000    0.8100    0.8200    0.8300    0.8400    0.8500    0.8600    0.8700
    0.8800    0.8900    0.9000    0.9100    0.9200    0.9300    0.9400    0.9500
    0.9600    0.9700    0.9800    0.9900    1.0000    1.0100    1.0200    1.0300
    1.0400    1.0500    1.0600    1.0700    1.0800    1.0900    1.1000    1.1100
    1.1200    1.1300    1.1400    1.1500    1.1600    1.1700    1.1800    1.1900
    1.2000    1.2100    1.2200    1.2300    1.2400    1.2500    1.2600    1.2700
    1.2800    1.2900    1.3000    1.3100    1.3200    1.3300    1.3400    1.3500
    1.3600    1.3700    1.3800    1.3900    1.4000    1.4100    1.4200    1.4300
    1.4400    1.4500    1.4600    1.4700    1.4800    1.4900    1.5000    1.5100
    1.5200    1.5300    1.5400    1.5500    1.5600    1.5700    1.5800    1.5900
    1.6000    1.6100    1.6200    1.6300    1.6400    1.6500    1.6600    1.6700
    1.6800    1.6900    1.7000    1.7100    1.7200    1.7300    1.7400    1.7500
    1.7600    1.7700    1.7800    1.7900    1.8000    1.8100    1.8200    1.8300
    1.8400    1.8500    1.8600    1.8700    1.8800    1.8900    1.9000    1.9100
    1.9200    1.9300    1.9400    1.9500    1.9600    1.9700    1.9800    1.9900
    2.0000    2.0100    2.0200    2.0300    2.0400    2.0500    2.0600    2.0700
    2.0800    2.0900    2.1000    2.1100    2.1200    2.1300    2.1400    2.1500
    2.1600    2.1700    2.1800    2.1900    2.2000    2.2100    2.2200    2.2300
    2.2400    2.2500    2.2600    2.2700    2.2800    2.2900    2.3000    2.3100
    2.3200    2.3300    2.3400    2.3500    2.3600    2.3700    2.3800    2.3900
    2.4000    2.4100    2.4200    2.4300    2.4400    2.4500    2.4600    2.4700
    2.4800    2.4900    2.5000    2.5100    2.5200    2.5300    2.5400    2.5500
    2.5600    2.5700    2.5800    2.5900    2.6000    2.6100    2.6200    2.6300
    2.6400    2.6500    2.6600    2.6700    2.6800    2.6900    2.7000    2.7100
    2.7200    2.7300    2.7400    2.7500    2.7600    2.7700    2.7800    2.7900
    2.8000    2.8100    2.8200    2.8300    2.8400    2.8500    2.8600    2.8700
    2.8800    2.8900    2.9000    2.9100    2.9200    2.9300    2.9400    2.9500
    2.9600    2.9700    2.9800    2.9900    3.0000    3.0100    3.0200    3.0300
    3.0400    3.0500    3.0600    3.0700    3.0800    3.0900    3.1000    3.1100
    3.1200    3.1300    3.1400    3.1500    3.1600    3.1700    3.1800    3.1900
    3.2000    3.2100    3.2200    3.2300    3.2400    3.2500    3.2600    3.2700
    3.2800    3.2900    3.3000    3.3100    3.3200    3.3300    3.3400    3.3500
    3.3600    3.3700    3.3800    3.3900    3.4000    3.4100    3.4200    3.4300
    3.4400    3.4500    3.4600    3.4700    3.4800    3.4900    3.5000    3.5100
    3.5200    3.5300    3.5400    3.5500    3.5600    3.5700    3.5800    3.5900
    3.6000    3.6100    3.6200    3.6300    3.6400    3.6500    3.6600    3.6700
    3.6800    3.6900    3.7000    3.7100    3.7200    3.7300    3.7400    3.7500
    3.7600    3.7700    3.7800    3.7900    3.8000    3.8100    3.8200    3.8300
    3.8400    3.8500    3.8600    3.8700    3.8800    3.8900    3.9000    3.9100
    3.9200    3.9300    3.9400    3.9500    3.9600    3.9700    3.9800    3.9900
    4.0000    4.0100    4.0200    4.0300    4.0400    4.0500    4.0600    4.0700
    4.0800    4.0900    4.1000    4.1100    4.1200    4.1300    4.1400    4.1500
    4.1600    4.1700    4.1800    4.1900    4.2000    4.2100    4.2200    4.2300
    4.2400    4.2500    4.2600    4.2700    4.2800    4.2900    4.3000    4.3100
    4.3200    4.3300    4.3400    4.3500    4.3600    4.3700    4.3800    4.3900
    4.4000    4.4100    4.4200    4.4300    4.4400    4.4500    4.4600    4.4700
    4.4800    4.4900    4.5000    4.5100    4.5200    4.5300    4.5400    4.5500
    4.5600    4.5700    4.5800    4.5900    4.6000    4.6100    4.6200    4.6300
    4.6400    4.6500    4.6600    4.6700    4.6800    4.6900    4.7000    4.7100
    4.7200    4.7300    4.7400    4.7500    4.7600    4.7700    4.7800    4.7900
    4.8000    4.8100    4.8200    4.8300    4.8400    4.8500    4.8600    4.8700
    4.8800    4.8900    4.9000    4.9100    4.9200    4.9300    4.9400    4.9500
    4.9600    4.9700    4.9800    4.9900    5.0000    5.0100    5.0200    5.0300
    5.0400    5.0500    5.0600    5.0700    5.0800    5.0900    5.1000    5.1100
    5.1200    5.1300    5.1400    5.1500    5.1600    5.1700    5.1800    5.1900
    5.2000    5.2100    5.2200    5.2300    5.2400    5.2500    5.2600    5.2700
    5.2800    5.2900    5.3000    5.3100    5.3200    5.3300    5.3400    5.3500
    5.3600    5.3700    5.3800    5.3900    5.4000    5.4100    5.4200    5.4300
    5.4400    5.4500    5.4600    5.4700    5.4800    5.4900    5.5000    5.5100
    5.5200    5.5300    5.5400    5.5500    5.5600    5.5700    5.5800    5.5900
    5.6000    5.6100    5.6200    5.6300    5.6400    5.6500    5.6600    5.6700
    5.6800    5.6900    5.7000    5.7100    5.7200    5.7300    5.7400    5.7500
    5.7600    5.7700    5.7800    5.7900    5.8000    5.8100    5.8200    5.8300
    5.8400    5.8500    5.8600    5.8700    5.8800    5.8900    5.9000    5.9100
    5.9200    5.9300    5.9400    5.9500    5.9600    5.9700    5.9800    5.9900
    6.0000    6.0100
   </PP_R>
   <PP_RAB type="real"  size=" 602" columns="8">
    0.0100    0.0100    0.0100    0.0100    0.0100    0.0100    0.0100    0.0100
    0.0100    0.0100    0.0100    0.0100    0.0100    0.0100    0.0100    0.0100
    0.0100    0.0100    0.0100    0.0100    0.0100    0.0100    0.0100    0.0100
    0.0100    0.0100    0.0100    0.0100    0.0100    0.0100    0.0100    0.0100
    0.0100    0.0100    0.0100    0.0100    0.0100    0.0100    0.0100    0.0100
    0.0100    0.0100    0.0100    0.0100    0.0100    0.0100    0.0100    0.0100
    0.0100    0.0100    0.0100    0.0100    0.0100    0.0100    0.0100    0.0100
    0.0100    0.0100    0.0100    0.0100    0.0100    0.0100    0.0100    0.0100
    0.0100    0.0100    0.0100    0.0100    0.0100    0.0100    0.0100    0.0100
    0.0100    0.0100    0.0100    0.0100    0.0100    0.0100    0.0100    0.0100
    0.0100    0.0100    0.0100    0.0100    0.0100    0.0100    0.0100    0.0100
    0.0100    0.0100    0.0100    0.0100    0.0100    0.0100    0.0100    0.0100
    0.0100    0.0100    0.0100    0.0100    0.0100    0.0100    0.0100    0.0100
    0.0100    0.0100    0.0100    0.0100    0.0100    0.0100    0.0100    0.0100
    0.0100    0.0100    0.0100    0.0100    0.0100    0.0100    0.0100    0.0100
    0.0100    0.0100    0.0100    0.0100    0.0100    0.0100    0.0100    0.0100
    0.0100    0.0100    0.0100    0.0100    0.0100    0.0100    0.0100    0.0100
    0.0100    0.0100    0.0100    0.0100    0.0100    0.0100    0.0100    0.0100
    0.0100    0.0100    0.0100    0.0100    0.0100    0.0100    0.0100    0.0100
    0.0100    0.0100    0.0100    0.0100    0.0100    0.0100    0.0100    0.0100
    0.0100    0.0100    0.0100    0.0100    0.0100    0.0100    0.0100    0.0100
    0.0100    0.0100    0.0100    0.0100    0.0100    0.0100    0.0100    0.0100
    0.0100    0.0100    0.0100    0.0100    0.0100    0.0100    0.0100    0.0100
    0.0100    0.0100    0.0100    0.0100    0.0100    0.0100    0.0100    0.0100
    0.0100    0.0100    0.0100    0.0100    0.0100    0.0100    0.0100    0.0100
    0.0100    0.0100    0.0100    0.0100    0.0100    0.0100    0.0100    0.0100
    0.0100    0.0100    0.0100    0.0100    0.0100    0.0100    0.0100    0.0100
    0.0100    0.0100    0.0100    0.0100    0.0100    0.0100    0.0100    0.0100
    0.0100    0.0100    0.0100    0.0100    0.0100    0.0100    0.0100    0.0100
    0.0100    0.0100    0.0100    0.0100    0.0100    0.0100    0.0100    0.0100
    0.0100    0.0100    0.0100    0.0100    0.0100    0.0100    0.0100    0.0100
    0.0100    0.0100    0.0100    0.0100    0.0100    0.0100    0.0100    0.0100
    0.0100    0.0100    0.0100    0.0100    0.0100    0.0100    0.0100    0.0100
    0.0100    0.0100    0.0100    0.0100    0.0100    0.0100    0.0100    0.0100
    0.0100    0.0100    0.0100    0.0100    0.0100    0.0100    0.0100    0.0100
    0.0100    0.0100    0.0100    0.0100    0.0100    0.0100    0.0100    0.0100
    0.0100    0.0100    0.0100    0.0100    0.0100    0.0100    0.0100    0.0100
    0.0100    0.0100    0.0100    0.0100    0.0100    0.0100    0.0100    0.0100
    0.0100    0.0100    0.0100    0.0100    0.0100    0.0100    0.0100    0.0100
    0.0100    0.0100    0.0100    0.0100    0.0100    0.0100    0.0100    0.0100
    0.0100    0.0100    0.0100    0.0100    0.0100    0.0100    0.0100    0.0100
    0.0100    0.0100    0.0100    0.0100    0.0100    0.0100    0.0100    0.0100
    0.0100    0.0100    0.0100    0.0100    0.0100    0.0100    0.0100    0.0100
    0.0100    0.0100    0.0100    0.0100    0.0100    0.0100    0.0100    0.0100
    0.0100    0.0100    0.0100    0.0100    0.0100    0.0100    0.0100    0.0100
    0.0100    0.0100    0.0100    0.0100    0.0100    0.0100    0.0100    0.0100
    0.0100    0.0100    0.0100    0.0100    0.0100    0.0100    0.0100    0.0100
    0.0100    0.0100    0.0100    0.0100    0.0100    0.0100    0.0100    0.0100
    0.0100    0.0100    0.0100    0.0100    0.0100    0.0100    0.0100    0.0100
    0.0100    0.0100    0.0100    0.0100    0.0100    0.0100    0.0100    0.0100
    0.0100    0.0100    0.0100    0.0100    0.0100    0.0100    0.0100    0.0100
    0.0100    0.0100    0.0100    0.0100    0.0100    0.0100    0.0100    0.0100
    0.0100    0.0100    0.0100    0.0100    0.0100    0.0100    0.0100    0.0100
    0.0100    0.0100    0.0100    0.0100    0.0100    0.0100    0.0100    0.0100
    0.0100    0.0100    0.0100    0.0100    0.0100    0.0100    0.0100    0.0100
    0.0100    0.0100    0.0100    0.0100    0.0100    0.0100    0.0100    0.0100
    0.0100    0.0100    0.0100    0.0100    0.0100    0.0100    0.0100    0.0100
    0.0100    0.0100    0.0100    0.0100    0.0100    0.0100    0.0100    0.0100
    0.0100    0.0100    0.0100    0.0100    0.0100    0.0100    0.0100    0.0100
    0.0100    0.0100    0.0100    0.0100    0.0100    0.0100    0.0100    0.0100
    0.0100    0.0100    0.0100    0.0100    0.0100    0.0100    0.0100    0.0100
    0.0100    0.0100    0.0100    0.0100    0.0100    0.0100    0.0100    0.0100
    0.0100    0.0100    0.0100    0.0100    0.0100    0.0100    0.0100    0.0100
    0.0100    0.0100    0.0100    0.0100    0.0100    0.0100    0.0100    0.0100
    0.0100    0.0100    0.0100    0.0100    0.0100    0.0100    0.0100    0.0100
    0.0100    0.0100    0.0100    0.0100    0.0100    0.0100    0.0100    0.0100
    0.0100    0.0100    0.0100    0.0100    0.0100    0.0100    0.0100    0.0100
    0.0100    0.0100    0.0100    0.0100    0.0100    0.0100    0.0100    0.0100
    0.0100    0.0100    0.0100    0.0100    0.0100    0.0100    0.0100    0.0100
    0.0100    0.0100    0.0100    0.0100    0.0100    0.0100    0.0100    0.0100
    0.0100    0.0100    0.0100    0.0100    0.0100    0.0100    0.0100    0.0100
    0.0100    0.0100    0.0100    0.0100    0.0100    0.0100    0.0100    0.0100
    0.0100    0.0100    0.0100    0.0100    0.0100    0.0100    0.0100    0.0100
    0.0100    0.0100    0.0100    0.0100    0.0100    0.0100    0.0100    0.0100
    0.0100    0.0100    0.0100    0.0100    0.0100    0.0100    0.0100    0.0100
    0.0100    0.0100
   </PP_RAB>
 </PP_MESH>
  <PP_LOCAL type="real"  size=" 602" columns="4">
   -2.5035264827E+01   -2.5036861072E+01   -2.5036990408E+01   -2.5038173365E+01
   -2.5042930475E+01   -2.5057271546E+01   -2.5093397513E+01   -2.5171705948E+01
   -2.5317858818E+01   -2.5549008317E+01   -2.5849163290E+01   -2.6150546229E+01
   -2.6349516693E+01   -2.6364025323E+01   -2.6191179493E+01   -2.5907412520E+01
   -2.5610723954E+01   -2.5365747157E+01   -2.5191781578E+01   -2.5079873430E+01
   -2.5012048364E+01   -2.4971861710E+01   -2.4947601142E+01   -2.4931993826E+01
   -2.4920935260E+01   -2.4912294652E+01   -2.4905066552E+01   -2.4898835162E+01
   -2.4893462471E+01   -2.4888912762E+01   -2.4885157025E+01   -2.4882122272E+01
   -2.4879665958E+01   -2.4877565085E+01   -2.4875514118E+01   -2.4873129969E+01
   -2.4869961818E+01   -2.4865505962E+01   -2.4859223989E+01   -2.4850564585E+01
   -2.4838987002E+01   -2.4823985369E+01   -2.4805112326E+01   -2.4782000444E+01
   -2.4754380017E+01   -2.4722091990E+01   -2.4685095112E+01   -2.4643466813E+01
   -2.4597397786E+01   -2.4547180568E+01   -2.4493194200E+01   -2.4435884284E+01
   -2.4375741008E+01   -2.4313277782E+01   -2.4249009712E+01   -2.4183435905E+01
   -2.4117022755E+01   -2.4050194879E+01   -2.3983324815E+01   -2.3916732948E+01
   -2.3850683364E+01   -2.3785389418E+01   -2.3721015846E+01   -2.3657684279E+01
   -2.3595480152E+01   -2.3534456892E+01   -2.3474642340E+01   -2.3416043756E+01
   -2.3358651758E+01   -2.3302443593E+01   -2.3247386404E+01   -2.3193439137E+01
   -2.3140554124E+01   -2.3088677998E+01   -2.3037752403E+01   -2.2987714340E+01
   -2.2938496206E+01   -2.2890025709E+01   -2.2842225687E+01   -2.2795013908E+01
   -2.2748302907E+01   -2.2701999903E+01   -2.2656006878E+01   -2.2610220801E+01
   -2.2564534076E+01   -2.2518835261E+01   -2.2473009985E+01   -2.2426942103E+01
   -2.2380515077E+01   -2.2333613556E+01   -2.2286125079E+01   -2.2237941854E+01
   -2.2188962546E+01   -2.2139093998E+01   -2.2088252812E+01   -2.2036366709E+01
   -2.1983375624E+01   -2.1929232482E+01   -2.1873903418E+01   -2.1817368113E+01
   -2.1759620152E+01   -2.1700665413E+01   -2.1640521529E+01   -2.1579216771E+01
   -2.1516788588E+01   -2.1453282625E+01   -2.1388751453E+01   -2.1323252245E+01
   -2.1256845747E+01   -2.1189595011E+01   -2.1121564385E+01   -2.1052817996E+01
   -2.0983418983E+01   -2.0913429025E+01   -2.0842907528E+01   -2.0771910698E+01
   -2.0700491896E+01   -2.0628701716E+01   -2.0556586692E+01   -2.0484189938E+01
   -2.0411551688E+01   -2.0338709118E+01   -2.0265695404E+01   -2.0192541449E+01
   -2.0119276072E+01   -2.0045924266E+01   -1.9972509481E+01   -1.9899053604E+01
   -1.9825575535E+01   -1.9752093055E+01   -1.9678622849E+01   -1.9605179261E+01
   -1.9531776035E+01   -1.9458425870E+01   -1.9385139908E+01   -1.9311928933E+01
   -1.9238802618E+01   -1.9165769738E+01   -1.9092838838E+01   -1.9020017178E+01
   -1.8947311785E+01   -1.8874729061E+01   -1.8802274529E+01   -1.8729953687E+01
   -1.8657770897E+01   -1.8585730416E+01   -1.8513835848E+01   -1.8442090151E+01
   -1.8370496194E+01   -1.8299055770E+01   -1.8227770843E+01   -1.8156642347E+01
   -1.8085671194E+01   -1.8014857651E+01   -1.7944201637E+01   -1.7873702806E+01
   -1.7803360233E+01   -1.7733173017E+01   -1.7663139582E+01   -1.7593258546E+01
   -1.7523527918E+01   -1.7453945897E+01   -1.7384510334E+01   -1.7315219172E+01
   -1.7246070280E+01   -1.7177061553E+01   -1.7108191051E+01   -1.7039456830E+01
   -1.6970857315E+01   -1.6902390898E+01   -1.6834056547E+01   -1.6765853124E+01
   -1.6697780295E+01   -1.6629837486E+01   -1.6562025173E+01   -1.6494343401E+01
   -1.6426793516E+01   -1.6359376193E+01   -1.6292093613E+01   -1.6224947139E+01
   -1.6157939582E+01   -1.6091073111E+01   -1.6024350886E+01   -1.5957775825E+01
   -1.5891351305E+01   -1.5825080786E+01   -1.5758967780E+01   -1.5693015994E+01
   -1.5627229053E+01   -1.5561610564E+01   -1.5496164268E+01   -1.5430893432E+01
   -1.5365801668E+01   -1.5300891986E+01   -1.5236167532E+01   -1.5171631192E+01
   -1.5107285447E+01   -1.5043133098E+01   -1.4979176069E+01   -1.4915416769E+01
   -1.4851857019E+01   -1.4788498696E+01   -1.4725343661E+01   -1.4662393618E+01
   -1.4599650232E+01   -1.4537115495E+01   -1.4474791090E+01   -1.4412679168E+01
   -1.4350782114E+01   -1.4289101824E+01   -1.4227641718E+01   -1.4166404230E+01
   -1.4105392901E+01   -1.4044611693E+01   -1.3984063713E+01   -1.3923754261E+01
   -1.3863687466E+01   -1.3803868337E+01   -1.3744302631E+01   -1.3684995143E+01
   -1.3625952317E+01   -1.3567180041E+01   -1.3508684263E+01   -1.3450471550E+01
   -1.3392548190E+01   -1.3334920528E+01   -1.3277594921E+01   -1.3220578009E+01
   -1.3163875566E+01   -1.3107493843E+01   -1.3051439024E+01   -1.2995716147E+01
   -1.2940331222E+01   -1.2885289285E+01   -1.2830594624E+01   -1.2776252805E+01
   -1.2722267332E+01   -1.2668641744E+01   -1.2615380960E+01   -1.2562486862E+01
   -1.2509962366E+01   -1.2457811172E+01   -1.2406034071E+01   -1.2354633222E+01
   -1.2303610946E+01   -1.2252967229E+01   -1.2202703384E+01   -1.2152820507E+01
   -1.2103317847E+01   -1.2054195876E+01   -1.2005454666E+01   -1.1957092792E+01
   -1.1909109919E+01   -1.1861505294E+01   -1.1814276876E+01   -1.1767423574E+01
   -1.1720943995E+01   -1.1674835536E+01   -1.1629096415E+01   -1.1583724745E+01
   -1.1538717425E+01   -1.1494072051E+01   -1.1449786358E+01   -1.1405856808E+01
   -1.1362280449E+01   -1.1319054722E+01   -1.1276175721E+01   -1.1233640063E+01
   -1.1191444815E+01   -1.1149585907E+01   -1.1108059597E+01   -1.1066862491E+01
   -1.1025990539E+01   -1.0985439659E+01   -1.0945206053E+01   -1.0905285701E+01
   -1.0865674280E+01   -1.0826367639E+01   -1.0787361622E+01   -1.0748652109E+01
   -1.0710234963E+01   -1.0672105743E+01   -1.0634260738E+01   -1.0596696069E+01
   -1.0559407576E+01   -1.0522391445E+01   -1.0485644214E+01   -1.0449162145E+01
   -1.0412941194E+01   -1.0376978361E+01   -1.0341270217E+01   -1.0305812993E+01
   -1.0270603592E+01   -1.0235639038E+01   -1.0200916077E+01   -1.0166431258E+01
   -1.0132182120E+01   -1.0098165772E+01   -1.0064378984E+01   -1.0030819179E+01
   -9.9974839171E+00   -9.9643705295E+00   -9.9314760178E+00   -9.8987983984E+00
   -9.8663352677E+00   -9.8340840482E+00   -9.8020423903E+00   -9.7702082620E+00
   -9.7385794328E+00   -9.7071534177E+00   -9.6759282951E+00   -9.6449020423E+00
   -9.6140725357E+00   -9.5834374558E+00   -9.5529951568E+00   -9.5227437044E+00
   -9.4926810424E+00   -9.4628052056E+00   -9.4331146018E+00   -9.4036074366E+00
   -9.3742817360E+00   -9.3451358297E+00   -9.3161681827E+00   -9.2873771310E+00
   -9.2587607974E+00   -9.2303177445E+00   -9.2020465001E+00   -9.1739455188E+00
   -9.1460130324E+00   -9.1182477740E+00   -9.0906483385E+00   -9.0632132862E+00
   -9.0359409648E+00   -9.0088302193E+00   -8.9818797144E+00   -8.9550881020E+00
   -8.9284538466E+00   -8.9019758551E+00   -8.8756528614E+00   -8.8494835940E+00
   -8.8234666294E+00   -8.7976008977E+00   -8.7718851971E+00   -8.7463183178E+00
   -8.7208989373E+00   -8.6956259844E+00   -8.6704983126E+00   -8.6455147599E+00
   -8.6206740885E+00   -8.5959752151E+00   -8.5714170371E+00   -8.5469984281E+00
   -8.5227182158E+00   -8.4985753045E+00   -8.4745686255E+00   -8.4506970792E+00
   -8.4269595387E+00   -8.4033548969E+00   -8.3798821221E+00   -8.3565401387E+00
   -8.3333278608E+00   -8.3102441490E+00   -8.2872880350E+00   -8.2644584730E+00
   -8.2417544174E+00   -8.2191747325E+00   -8.1967184678E+00   -8.1743846384E+00
   -8.1521722357E+00   -8.1300801785E+00   -8.1081074557E+00   -8.0862532089E+00
   -8.0645164828E+00   -8.0428963216E+00   -8.0213916195E+00   -8.0000016198E+00
   -7.9787254155E+00   -7.9575620995E+00   -7.9365106906E+00   -7.9155703108E+00
   -7.8947401620E+00   -7.8740193792E+00   -7.8534070976E+00   -7.8329023200E+00
   -7.8125043529E+00   -7.7922123719E+00   -7.7720255524E+00   -7.7519430139E+00
   -7.7319639243E+00   -7.7120875756E+00   -7.6923131815E+00   -7.6726399555E+00
   -7.6530670113E+00   -7.6335936603E+00   -7.6142191828E+00   -7.5949428288E+00
   -7.5757638383E+00   -7.5566813595E+00   -7.5376947919E+00   -7.5188034207E+00
   -7.5000065309E+00   -7.4813033661E+00   -7.4626931802E+00   -7.4441753744E+00
   -7.4257492673E+00   -7.4074141772E+00   -7.3891693586E+00   -7.3710141510E+00
   -7.3529479629E+00   -7.3349701446E+00   -7.3170800460E+00   -7.2992769394E+00
   -7.2815602305E+00   -7.2639293410E+00   -7.2463836511E+00   -7.2289225413E+00
   -7.2115453073E+00   -7.1942514028E+00   -7.1770402686E+00   -7.1599113138E+00
   -7.1428639476E+00   -7.1258974948E+00   -7.1090114399E+00   -7.0922052485E+00
   -7.0754783573E+00   -7.0588302030E+00   -7.0422601443E+00   -7.0257676806E+00
   -7.0093523079E+00   -6.9930134890E+00   -6.9767506869E+00   -6.9605632991E+00
   -6.9444508249E+00   -6.9284127956E+00   -6.9124486991E+00   -6.8965580232E+00
   -6.8807402094E+00   -6.8649947422E+00   -6.8493211932E+00   -6.8337190740E+00
   -6.8181878963E+00   -6.8027271501E+00   -6.7873362923E+00   -6.7720149384E+00
   -6.7567626228E+00   -6.7415788798E+00   -6.7264632442E+00   -6.7114151586E+00
   -6.6964342606E+00   -6.6815201144E+00   -6.6666722762E+00   -6.6518903020E+00
   -6.6371736921E+00   -6.6225220269E+00   -6.6079349263E+00   -6.5934119670E+00
   -6.5789527259E+00   -6.5645567653E+00   -6.5502235982E+00   -6.5359529021E+00
   -6.5217442735E+00   -6.5075973088E+00   -6.4935116047E+00   -6.4794866949E+00
   -6.4655222193E+00   -6.4516178249E+00   -6.4377731268E+00   -6.4239877406E+00
   -6.4102612702E+00   -6.3965932644E+00   -6.3829834360E+00   -6.3694314183E+00
   -6.3559368446E+00   -6.3424993480E+00   -6.3291185163E+00   -6.3157939920E+00
   -6.3025254700E+00   -6.2893126007E+00   -6.2761550343E+00   -6.2630524213E+00
   -6.2500043402E+00   -6.2370105106E+00   -6.2240706146E+00   -6.2111843189E+00
   -6.1983512901E+00   -6.1855711886E+00   -6.1728436099E+00   -6.1601683144E+00
   -6.1475449842E+00   -6.1349733015E+00   -6.1224529483E+00   -6.1099835855E+00
   -6.0975648581E+00   -6.0851965250E+00   -6.0728782832E+00   -6.0606098297E+00
   -6.0483908614E+00   -6.0362210452E+00   -6.0241000613E+00   -6.0120276725E+00
   -6.0000035899E+00   -5.9880275246E+00   -5.9760991876E+00   -5.9642182574E+00
   -5.9523844356E+00   -5.9405974940E+00   -5.9288571571E+00   -5.9171631496E+00
   -5.9055151959E+00   -5.8939129913E+00   -5.8823562455E+00   -5.8708447445E+00
   -5.8593782258E+00   -5.8479564267E+00   -5.8365790846E+00   -5.8252459161E+00
   -5.8139566272E+00   -5.8027110227E+00   -5.7915088523E+00   -5.7803498655E+00
   -5.7692338119E+00   -5.7581604342E+00   -5.7471294234E+00   -5.7361406072E+00
   -5.7251937468E+00   -5.7142886037E+00   -5.7034249390E+00   -5.6926025140E+00
   -5.6818210293E+00   -5.6710803045E+00   -5.6603801236E+00   -5.6497202589E+00
   -5.6391004829E+00   -5.6285205679E+00   -5.6179802495E+00   -5.6074793079E+00
   -5.5970175605E+00   -5.5865947901E+00   -5.5762107799E+00   -5.5658653128E+00
   -5.5555581638E+00   -5.5452890643E+00   -5.5350578680E+00   -5.5248643680E+00
   -5.5147083575E+00   -5.5045896296E+00   -5.4945079773E+00   -5.4844631508E+00
   -5.4744549674E+00   -5.4644832545E+00   -5.4545478151E+00   -5.4446484517E+00
   -5.4347849672E+00   -5.4249571590E+00   -5.4151647757E+00   -5.4054076892E+00
   -5.3956857115E+00   -5.3859986546E+00   -5.3763463304E+00   -5.3667285509E+00
   -5.3571450990E+00   -5.3475957836E+00   -5.3380804612E+00   -5.3285989524E+00
   -5.3191510780E+00   -5.3097366586E+00   -5.3003555151E+00   -5.2910074221E+00
   -5.2816922351E+00   -5.2724098004E+00   -5.2631599468E+00   -5.2539425036E+00
   -5.2447572998E+00   -5.2356041644E+00   -5.2264828694E+00   -5.2173933043E+00
   -5.2083353100E+00   -5.1993087236E+00   -5.1903133821E+00   -5.1813491225E+00
   -5.1724157783E+00   -5.1635131345E+00   -5.1546410916E+00   -5.1457994942E+00
   -5.1369881868E+00   -5.1282070142E+00   -5.1194558210E+00   -5.1107344459E+00
   -5.1020426876E+00   -5.0933804503E+00   -5.0847475858E+00   -5.0761439461E+00
   -5.0675693830E+00   -5.0590237483E+00   -5.0505068906E+00   -5.0420186119E+00
   -5.0335588244E+00   -5.0251273868E+00   -5.0167241578E+00   -5.0083489963E+00
   -5.0000017610E+00   -4.9916823107E+00
  </PP_LOCAL>
 <PP_NONLOCAL>
   <PP_BETA.1
       type="real"
       size=" 602"
       columns="4"
       index="1"
       angular_momentum="0"
       cutoff_radius_index=" 372"
       cutoff_radius="    3.7100000000E+00" >
    0.0000000000E+00    1.5370568117E-02    3.0743561711E-02    4.6121388790E-02
    6.1506422473E-02    7.6900983635E-02    9.2307323676E-02    1.0772760745E-01
    1.2316389638E-01    1.3861813180E-01    1.5409211860E-01    1.6958750912E-01
    1.8510578743E-01    2.0064825402E-01    2.1621601080E-01    2.3180994664E-01
    2.4743072337E-01    2.6307876230E-01    2.7875423125E-01    2.9445703216E-01
    3.1018678941E-01    3.2594283859E-01    3.4172421611E-01    3.5752964940E-01
    3.7335754779E-01    3.8920599429E-01    4.0507273787E-01    4.2095518678E-01
    4.3685040248E-01    4.5275509447E-01    4.6866561592E-01    4.8457796013E-01
    5.0048775788E-01    5.1639027566E-01    5.3228041464E-01    5.4815271074E-01
    5.6400133534E-01    5.7982009717E-01    5.9560244474E-01    6.1134147001E-01
    6.2702991271E-01    6.4266016564E-01    6.5822428087E-01    6.7371397675E-01
    6.8912064585E-01    7.0443536371E-01    7.1964889849E-01    7.3475172140E-01
    7.4973401797E-01    7.6458569988E-01    7.7929641813E-01    7.9385557679E-01
    8.0825234648E-01    8.2247568006E-01    8.3651432914E-01    8.5035685733E-01
    8.6399166279E-01    8.7740698858E-01    8.9059094921E-01    9.0353153981E-01
    9.1621666581E-01    9.2863415304E-01    9.4077177383E-01    9.5261726740E-01
    9.6415835445E-01    9.7538276751E-01    9.8627826760E-01    9.9683266373E-01
    1.0070338364E+00    1.0168697661E+00    1.0263285467E+00    1.0353984110E+00
    1.0440677501E+00    1.0523251426E+00    1.0601593732E+00    1.0675594531E+00
    1.0745146432E+00    1.0810144757E+00    1.0870487760E+00    1.0926076838E+00
    1.0976816744E+00    1.1022615787E+00    1.1063386035E+00    1.1099043515E+00