<UPF version="2.0.1">
  <PP_INFO>

 This pseudopotential file has been produced using the code
 ONCVPSP  (Optimized Norm-Conservinng Vanderbilt PSeudopotential)
 fully-relativistic version 2.1.1, 03/26/2014 by D. R. Hamann
 The code is available through a link at URL www.mat-simresearch.com.
 Documentation with the package provides a full description of the
 input data below.

 While it is not required under the terms of the GNU GPL, it is
 suggested that you cite D. R. Hamann, Phys. Rev. B 88, 085117 (2013)
 in any publication using these pseudopotentials.

 -----

 This pseudopotential was produced with the SG15 1.0 and/or 1.1
 parameter sets, the Schlipf-Gygi norm-conserving pseudopotential
 library. For details of the construction and testing of the
 pseudopotential please refer to:

 M. Schlipf, F. Gygi, Comp. Phys. Comm. 196, 36 (2015)
 http://dx.doi.org/10.1016/j.cpc.2015.05.011

 The above authors kindly ask that you include this reference in all
 publications associated to this pseudopotential.

 Please note this fully-relativistic version does not employ the
 above self-consistent procedure at the fully-relativistic level.

 -----

 This pseudopotential was produced by Peter Scherpelz for the purpose
 of performing GW calculations with spin-orbit-coupling. Please see
 the publication:

 P. Scherpelz, M. Govoni, I. Hamada, G. Galli; J. Chem. Theory Comput. (2016)
 http://dx.doi.org/10.1021/acs.jctc.6b00114

 If you use these pseudopotentials in your work, we also kindly ask
 that you cite the above publication.

 -----

 This work is licensed under the Creative Commons Attribution-ShareAlike 
 4.0 International License. To view a copy of this license, visit 
 http://creativecommons.org/licenses/by-sa/4.0/ or send a letter to 
 Creative Commons, PO Box 1866, Mountain View, CA 94042, USA.

 The SG15 library is Copyright 2015 The Regents of the University of
 California.  Further modifications of these files are Copyright 2016
 Peter Scherpelz.

    <PP_INPUTFILE>
# ATOM AND REFERENCE CONFIGURATION
# atsym  z    nc    nv    iexc   psfile
  Cs 55.00     9     3     4      upf
#
#   n    l    f        energy (Ha)
    1    0    2.00
    2    0    2.00
    2    1    6.00
    3    0    2.00
    3    1    6.00
    3    2   10.00
    4    0    2.00
    4    1    6.00
    4    2   10.00
    5    0    2.00
    5    1    6.00
    6    0    1.00
#
# PSEUDOPOTENTIAL AND OPTIMIZATION
# lmax
    2
#
#   l,   rc,     ep,   ncon, nbas, qcut
    0    2.56   -0.98    5    8    5.20
    1    2.59   -0.48    5    8    5.13
    2    2.78    0.05    5    8    6.06
#
# LOCAL POTENTIAL
# lloc, lpopt,  rc(5),   dvloc0
    4    5      1.50       0.00
#
# VANDERBILT-KLEINMAN-BYLANDER PROJECTORs
# l, nproj, debl
    0    2    0.9044
    1    2    1.5909
    2    2    1.7436
#
# MODEL CORE CHARGE
# icmod, fcfact
    0    0.00
#
# LOG DERIVATIVE ANALYSIS
# epsh1, epsh2, depsh
   -5.00    3.00    0.02
#
# OUTPUT GRID
# rlmax, drl
    6.00    0.01
#
# TEST CONFIGURATIONS
# ncnf
    0
# nvcnf
#   n    l    f
    </PP_INPUTFILE>
  </PP_INFO>
  <!--                               -->
  <!-- END OF HUMAN READABLE SECTION -->
  <!--                               -->
    <PP_HEADER
       generated="Generated using ONCVPSP code by D. R. Hamann"
       author="anonymous"
       date="150703"
       comment=""
       element="Cs"
       pseudo_type="NC"
       relativistic="full"
       is_ultrasoft="F"
       is_paw="F"
       is_coulomb="F"
       has_so="T"
       has_wfc="F"
       has_gipaw="F"
       core_correction="F"
       functional="PBE"
       z_valence="    9.00"
       total_psenergy="  -2.01943405200E+01"
       rho_cutoff="   6.01000000000E+00"
       l_max="2"
       l_local="-1"
       mesh_size="   602"
       number_of_wfc="0"
       number_of_proj="10"/>
 <PP_MESH>
   <PP_R type="real"  size=" 602" columns="8">
    0.0000    0.0100    0.0200    0.0300    0.0400    0.0500    0.0600    0.0700
    0.0800    0.0900    0.1000    0.1100    0.1200    0.1300    0.1400    0.1500
    0.1600    0.1700    0.1800    0.1900    0.2000    0.2100    0.2200    0.2300
    0.2400    0.2500    0.2600    0.2700    0.2800    0.2900    0.3000    0.3100
    0.3200    0.3300    0.3400    0.3500    0.3600    0.3700    0.3800    0.3900
    0.4000    0.4100    0.4200    0.4300    0.4400    0.4500    0.4600    0.4700
    0.4800    0.4900    0.5000    0.5100    0.5200    0.5300    0.5400    0.5500
    0.5600    0.5700    0.5800    0.5900    0.6000    0.6100    0.6200    0.6300
    0.6400    0.6500    0.6600    0.6700    0.6800    0.6900    0.7000    0.7100
    0.7200    0.7300    0.7400    0.7500    0.7600    0.7700    0.7800    0.7900
    0.8000    0.8100    0.8200    0.8300    0.8400    0.8500    0.8600    0.8700
    0.8800    0.8900    0.9000    0.9100    0.9200    0.9300    0.9400    0.9500
    0.9600    0.9700    0.9800    0.9900    1.0000    1.0100    1.0200    1.0300
    1.0400    1.0500    1.0600    1.0700    1.0800    1.0900    1.1000    1.1100
    1.1200    1.1300    1.1400    1.1500    1.1600    1.1700    1.1800    1.1900
    1.2000    1.2100    1.2200    1.2300    1.2400    1.2500    1.2600    1.2700
    1.2800    1.2900    1.3000    1.3100    1.3200    1.3300    1.3400    1.3500
    1.3600    1.3700    1.3800    1.3900    1.4000    1.4100    1.4200    1.4300
    1.4400    1.4500    1.4600    1.4700    1.4800    1.4900    1.5000    1.5100
    1.5200    1.5300    1.5400    1.5500    1.5600    1.5700    1.5800    1.5900
    1.6000    1.6100    1.6200    1.6300    1.6400    1.6500    1.6600    1.6700
    1.6800    1.6900    1.7000    1.7100    1.7200    1.7300    1.7400    1.7500
    1.7600    1.7700    1.7800    1.7900    1.8000    1.8100    1.8200    1.8300
    1.8400    1.8500    1.8600    1.8700    1.8800    1.8900    1.9000    1.9100
    1.9200    1.9300    1.9400    1.9500    1.9600    1.9700    1.9800    1.9900
    2.0000    2.0100    2.0200    2.0300    2.0400    2.0500    2.0600    2.0700
    2.0800    2.0900    2.1000    2.1100    2.1200    2.1300    2.1400    2.1500
    2.1600    2.1700    2.1800    2.1900    2.2000    2.2100    2.2200    2.2300
    2.2400    2.2500    2.2600    2.2700    2.2800    2.2900    2.3000    2.3100
    2.3200    2.3300    2.3400    2.3500    2.3600    2.3700    2.3800    2.3900
    2.4000    2.4100    2.4200    2.4300    2.4400    2.4500    2.4600    2.4700
    2.4800    2.4900    2.5000    2.5100    2.5200    2.5300    2.5400    2.5500
    2.5600    2.5700    2.5800    2.5900    2.6000    2.6100    2.6200    2.6300
    2.6400    2.6500    2.6600    2.6700    2.6800    2.6900    2.7000    2.7100
    2.7200    2.7300    2.7400    2.7500    2.7600    2.7700    2.7800    2.7900
    2.8000    2.8100    2.8200    2.8300    2.8400    2.8500    2.8600    2.8700
    2.8800    2.8900    2.9000    2.9100    2.9200    2.9300    2.9400    2.9500
    2.9600    2.9700    2.9800    2.9900    3.0000    3.0100    3.0200    3.0300
    3.0400    3.0500    3.0600    3.0700    3.0800    3.0900    3.1000    3.1100
    3.1200    3.1300    3.1400    3.1500    3.1600    3.1700    3.1800    3.1900
    3.2000    3.2100    3.2200    3.2300    3.2400    3.2500    3.2600    3.2700
    3.2800    3.2900    3.3000    3.3100    3.3200    3.3300    3.3400    3.3500
    3.3600    3.3700    3.3800    3.3900    3.4000    3.4100    3.4200    3.4300
    3.4400    3.4500    3.4600    3.4700    3.4800    3.4900    3.5000    3.5100
    3.5200    3.5300    3.5400    3.5500    3.5600    3.5700    3.5800    3.5900
    3.6000    3.6100    3.6200    3.6300    3.6400    3.6500    3.6600    3.6700
    3.6800    3.6900    3.7000    3.7100    3.7200    3.7300    3.7400    3.7500
    3.7600    3.7700    3.7800    3.7900    3.8000    3.8100    3.8200    3.8300
    3.8400    3.8500    3.8600    3.8700    3.8800    3.8900    3.9000    3.9100
    3.9200    3.9300    3.9400    3.9500    3.9600    3.9700    3.9800    3.9900
    4.0000    4.0100    4.0200    4.0300    4.0400    4.0500    4.0600    4.0700
    4.0800    4.0900    4.1000    4.1100    4.1200    4.1300    4.1400    4.1500
    4.1600    4.1700    4.1800    4.1900    4.2000    4.2100    4.2200    4.2300
    4.2400    4.2500    4.2600    4.2700    4.2800    4.2900    4.3000    4.3100
    4.3200    4.3300    4.3400    4.3500    4.3600    4.3700    4.3800    4.3900
    4.4000    4.4100    4.4200    4.4300    4.4400    4.4500    4.4600    4.4700
    4.4800    4.4900    4.5000    4.5100    4.5200    4.5300    4.5400    4.5500
    4.5600    4.5700    4.5800    4.5900    4.6000    4.6100    4.6200    4.6300
    4.6400    4.6500    4.6600    4.6700    4.6800    4.6900    4.7000    4.7100
    4.7200    4.7300    4.7400    4.7500    4.7600    4.7700    4.7800    4.7900
    4.8000    4.8100    4.8200    4.8300    4.8400    4.8500    4.8600    4.8700
    4.8800    4.8900    4.9000    4.9100    4.9200    4.9300    4.9400    4.9500
    4.9600    4.9700    4.9800    4.9900    5.0000    5.0100    5.0200    5.0300
    5.0400    5.0500    5.0600    5.0700    5.0800    5.0900    5.1000    5.1100
    5.1200    5.1300    5.1400    5.1500    5.1600    5.1700    5.1800    5.1900
    5.2000    5.2100    5.2200    5.2300    5.2400    5.2500    5.2600    5.2700
    5.2800    5.2900    5.3000    5.3100    5.3200    5.3300    5.3400    5.3500
    5.3600    5.3700    5.3800    5.3900    5.4000    5.4100    5.4200    5.4300
    5.4400    5.4500    5.4600    5.4700    5.4800    5.4900    5.5000    5.5100
    5.5200    5.5300    5.5400    5.5500    5.5600    5.5700    5.5800    5.5900
    5.6000    5.6100    5.6200    5.6300    5.6400    5.6500    5.6600    5.6700
    5.6800    5.6900    5.7000    5.7100    5.7200    5.7300    5.7400    5.7500
    5.7600    5.7700    5.7800    5.7900    5.8000    5.8100    5.8200    5.8300
    5.8400    5.8500    5.8600    5.8700    5.8800    5.8900    5.9000    5.9100
    5.9200    5.9300    5.9400    5.9500    5.9600    5.9700    5.9800    5.9900
    6.0000    6.0100
   </PP_R>
   <PP_RAB type="real"  size=" 602" columns="8">
    0.0100    0.0100    0.0100    0.0100    0.0100    0.0100    0.0100    0.0100
    0.0100    0.0100    0.0100    0.0100    0.0100    0.0100    0.0100    0.0100
    0.0100    0.0100    0.0100    0.0100    0.0100    0.0100    0.0100    0.0100
    0.0100    0.0100    0.0100    0.0100    0.0100    0.0100    0.0100    0.0100
    0.0100    0.0100    0.0100    0.0100    0.0100    0.0100    0.0100    0.0100
    0.0100    0.0100    0.0100    0.0100    0.0100    0.0100    0.0100    0.0100
    0.0100    0.0100    0.0100    0.0100    0.0100    0.0100    0.0100    0.0100
    0.0100    0.0100    0.0100    0.0100    0.0100    0.0100    0.0100    0.0100
    0.0100    0.0100    0.0100    0.0100    0.0100    0.0100    0.0100    0.0100
    0.0100    0.0100    0.0100    0.0100    0.0100    0.0100    0.0100    0.0100
    0.0100    0.0100    0.0100    0.0100    0.0100    0.0100    0.0100    0.0100
    0.0100    0.0100    0.0100    0.0100    0.0100    0.0100    0.0100    0.0100
    0.0100    0.0100    0.0100    0.0100    0.0100    0.0100    0.0100    0.0100
    0.0100    0.0100    0.0100    0.0100    0.0100    0.0100    0.0100    0.0100
    0.0100    0.0100    0.0100    0.0100    0.0100    0.0100    0.0100    0.0100
    0.0100    0.0100    0.0100    0.0100    0.0100    0.0100    0.0100    0.0100
    0.0100    0.0100    0.0100    0.0100    0.0100    0.0100    0.0100    0.0100
    0.0100    0.0100    0.0100    0.0100    0.0100    0.0100    0.0100    0.0100
    0.0100    0.0100    0.0100    0.0100    0.0100    0.0100    0.0100    0.0100
    0.0100    0.0100    0.0100    0.0100    0.0100    0.0100    0.0100    0.0100
    0.0100    0.0100    0.0100    0.0100    0.0100    0.0100    0.0100    0.0100
    0.0100    0.0100    0.0100    0.0100    0.0100    0.0100    0.0100    0.0100
    0.0100    0.0100    0.0100    0.0100    0.0100    0.0100    0.0100    0.0100
    0.0100    0.0100    0.0100    0.0100    0.0100    0.0100    0.0100    0.0100
    0.0100    0.0100    0.0100    0.0100    0.0100    0.0100    0.0100    0.0100
    0.0100    0.0100    0.0100    0.0100    0.0100    0.0100    0.0100    0.0100
    0.0100    0.0100    0.0100    0.0100    0.0100    0.0100    0.0100    0.0100
    0.0100    0.0100    0.0100    0.0100    0.0100    0.0100    0.0100    0.0100
    0.0100    0.0100    0.0100    0.0100    0.0100    0.0100    0.0100    0.0100
    0.0100    0.0100    0.0100    0.0100    0.0100    0.0100    0.0100    0.0100
    0.0100    0.0100    0.0100    0.0100    0.0100    0.0100    0.0100    0.0100
    0.0100    0.0100    0.0100    0.0100    0.0100    0.0100    0.0100    0.0100
    0.0100    0.0100    0.0100    0.0100    0.0100    0.0100    0.0100    0.0100
    0.0100    0.0100    0.0100    0.0100    0.0100    0.0100    0.0100    0.0100
    0.0100    0.0100    0.0100    0.0100    0.0100    0.0100    0.0100    0.0100
    0.0100    0.0100    0.0100    0.0100    0.0100    0.0100    0.0100    0.0100
    0.0100    0.0100    0.0100    0.0100    0.0100    0.0100    0.0100    0.0100
    0.0100    0.0100    0.0100    0.0100    0.0100    0.0100    0.0100    0.0100
    0.0100    0.0100    0.0100    0.0100    0.0100    0.0100    0.0100    0.0100
    0.0100    0.0100    0.0100    0.0100    0.0100    0.0100    0.0100    0.0100
    0.0100    0.0100    0.0100    0.0100    0.0100    0.0100    0.0100    0.0100
    0.0100    0.0100    0.0100    0.0100    0.0100    0.0100    0.0100    0.0100
    0.0100    0.0100    0.0100    0.0100    0.0100    0.0100    0.0100    0.0100
    0.0100    0.0100    0.0100    0.0100    0.0100    0.0100    0.0100    0.0100
    0.0100    0.0100    0.0100    0.0100    0.0100    0.0100    0.0100    0.0100
    0.0100    0.0100    0.0100    0.0100    0.0100    0.0100    0.0100    0.0100
    0.0100    0.0100    0.0100    0.0100    0.0100    0.0100    0.0100    0.0100
    0.0100    0.0100    0.0100    0.0100    0.0100    0.0100    0.0100    0.0100
    0.0100    0.0100    0.0100    0.0100    0.0100    0.0100    0.0100    0.0100
    0.0100    0.0100    0.0100    0.0100    0.0100    0.0100    0.0100    0.0100
    0.0100    0.0100    0.0100    0.0100    0.0100    0.0100    0.0100    0.0100
    0.0100    0.0100    0.0100    0.0100    0.0100    0.0100    0.0100    0.0100
    0.0100    0.0100    0.0100    0.0100    0.0100    0.0100    0.0100    0.0100
    0.0100    0.0100    0.0100    0.0100    0.0100    0.0100    0.0100    0.0100
    0.0100    0.0100    0.0100    0.0100    0.0100    0.0100    0.0100    0.0100
    0.0100    0.0100    0.0100    0.0100    0.0100    0.0100    0.0100    0.0100
    0.0100    0.0100    0.0100    0.0100    0.0100    0.0100    0.0100    0.0100
    0.0100    0.0100    0.0100    0.0100    0.0100    0.0100    0.0100    0.0100
    0.0100    0.0100    0.0100    0.0100    0.0100    0.0100    0.0100    0.0100
    0.0100    0.0100    0.0100    0.0100    0.0100    0.0100    0.0100    0.0100
    0.0100    0.0100    0.0100    0.0100    0.0100    0.0100    0.0100    0.0100
    0.0100    0.0100    0.0100    0.0100    0.0100    0.0100    0.0100    0.0100
    0.0100    0.0100    0.0100    0.0100    0.0100    0.0100    0.0100    0.0100
    0.0100    0.0100    0.0100    0.0100    0.0100    0.0100    0.0100    0.0100
    0.0100    0.0100    0.0100    0.0100    0.0100    0.0100    0.0100    0.0100
    0.0100    0.0100    0.0100    0.0100    0.0100    0.0100    0.0100    0.0100
    0.0100    0.0100    0.0100    0.0100    0.0100    0.0100    0.0100    0.0100
    0.0100    0.0100    0.0100    0.0100    0.0100    0.0100    0.0100    0.0100
    0.0100    0.0100    0.0100    0.0100    0.0100    0.0100    0.0100    0.0100
    0.0100    0.0100    0.0100    0.0100    0.0100    0.0100    0.0100    0.0100
    0.0100    0.0100    0.0100    0.0100    0.0100    0.0100    0.0100    0.0100
    0.0100    0.0100    0.0100    0.0100    0.0100    0.0100    0.0100    0.0100
    0.0100    0.0100    0.0100    0.0100    0.0100    0.0100    0.0100    0.0100
    0.0100    0.0100    0.0100    0.0100    0.0100    0.0100    0.0100    0.0100
    0.0100    0.0100    0.0100    0.0100    0.0100    0.0100    0.0100    0.0100
    0.0100    0.0100
   </PP_RAB>
 </PP_MESH>
  <PP_LOCAL type="real"  size=" 602" columns="4">
   -3.1717256955E+01   -3.1710495151E+01   -3.1692945055E+01   -3.1667191939E+01
   -3.1635821077E+01   -3.1600275895E+01   -3.1561305777E+01   -3.1519291902E+01
   -3.1474433279E+01   -3.1426840783E+01   -3.1376583513E+01   -3.1323711752E+01
   -3.1268268464E+01   -3.1210295062E+01   -3.1149834274E+01   -3.1086931500E+01
   -3.1021635369E+01   -3.0953997869E+01   -3.0884074224E+01   -3.0811922618E+01
   -3.0737603799E+01   -3.0661180583E+01   -3.0582717254E+01   -3.0502278860E+01
   -3.0419930405E+01   -3.0335735923E+01   -3.0249757453E+01   -3.0162053907E+01
   -3.0072679846E+01   -2.9981684186E+01   -2.9889108843E+01   -2.9794987367E+01
   -2.9699343582E+01   -2.9602190236E+01   -2.9503527820E+01   -2.9403343437E+01
   -2.9301609935E+01   -2.9198285178E+01   -2.9093311725E+01   -2.8986616753E+01
   -2.8878112316E+01   -2.8767696122E+01   -2.8655252638E+01   -2.8540654666E+01
   -2.8423765335E+01   -2.8304440508E+01   -2.8182531574E+01   -2.8057888534E+01
   -2.7930363383E+01   -2.7799813679E+01   -2.7666106168E+01   -2.7529120261E+01
   -2.7388751871E+01   -2.7244916439E+01   -2.7097551706E+01   -2.6946620968E+01
   -2.6792113841E+01   -2.6634049245E+01   -2.6472474279E+01   -2.6307466262E+01
   -2.6139130076E+01   -2.5967598467E+01   -2.5793028970E+01   -2.5615601339E+01
   -2.5435515179E+01   -2.5252985485E+01   -2.5068239172E+01   -2.4881511426E+01
   -2.4693041341E+01   -2.4503068346E+01   -2.4311828784E+01   -2.4119552480E+01
   -2.3926460303E+01   -2.3732761959E+01   -2.3538654345E+01   -2.3344320494E+01
   -2.3149928962E+01   -2.2955633386E+01   -2.2761573134E+01   -2.2567873738E+01
   -2.2374647708E+01   -2.2181995534E+01   -2.1990006787E+01   -2.1798761274E+01
   -2.1608330187E+01   -2.1418777217E+01   -2.1230159582E+01   -2.1042528980E+01
   -2.0855932422E+01   -2.0670412967E+01   -2.0486010342E+01   -2.0302761463E+01
   -2.0120700859E+01   -1.9939861010E+01   -1.9760272627E+01   -1.9581964831E+01
   -1.9404965272E+01   -1.9229300295E+01   -1.9054994985E+01   -1.8882073214E+01
   -1.8710557670E+01   -1.8540469887E+01   -1.8371830293E+01   -1.8204658055E+01
   -1.8038971267E+01   -1.7874786910E+01   -1.7712120882E+01   -1.7550988105E+01
   -1.7391402327E+01   -1.7233376377E+01   -1.7076922189E+01   -1.6922050896E+01
   -1.6768772802E+01   -1.6617097444E+01   -1.6467033789E+01   -1.6318590292E+01
   -1.6171774870E+01   -1.6026595019E+01   -1.5883057940E+01   -1.5741170592E+01
   -1.5600939625E+01   -1.5462371549E+01   -1.5325472742E+01   -1.5190249409E+01
   -1.5056707602E+01   -1.4924853248E+01   -1.4794692088E+01   -1.4666229544E+01
   -1.4539470824E+01   -1.4414420762E+01   -1.4291083533E+01   -1.4169462986E+01
   -1.4049562112E+01   -1.3931382850E+01   -1.3814926780E+01   -1.3700193594E+01
   -1.3587181948E+01   -1.3475889641E+01   -1.3366311576E+01   -1.3258442173E+01
   -1.3152273088E+01   -1.3047793581E+01   -1.2944992228E+01   -1.2843852539E+01
   -1.2744357975E+01   -1.2646487388E+01   -1.2550217166E+01   -1.2455521792E+01
   -1.2362369613E+01   -1.2270729970E+01   -1.2180563428E+01   -1.2091832438E+01
   -1.2004497785E+01   -1.1918523056E+01   -1.1833874299E+01   -1.1750520411E+01
   -1.1668430930E+01   -1.1587578899E+01   -1.1507936644E+01   -1.1429480120E+01
   -1.1352184076E+01   -1.1276026338E+01   -1.1200983762E+01   -1.1127035394E+01
   -1.1054159715E+01   -1.0982336743E+01   -1.0911546163E+01   -1.0841768790E+01
   -1.0772985222E+01   -1.0705176949E+01   -1.0638325285E+01   -1.0572412317E+01
   -1.0507419942E+01   -1.0443330801E+01   -1.0380127283E+01   -1.0317792559E+01
   -1.0256309450E+01   -1.0195661655E+01   -1.0135832379E+01   -1.0076805823E+01
   -1.0018565649E+01   -9.9610964451E+00   -9.9043824047E+00   -9.8484084457E+00
   -9.7931593331E+00   -9.7386202797E+00   -9.6847766647E+00   -9.6316139584E+00
   -9.5791181994E+00   -9.5272750820E+00   -9.4760712980E+00   -9.4254928851E+00
   -9.3755269886E+00   -9.3261602915E+00   -9.2773801268E+00   -9.2291739757E+00
   -9.1815292917E+00   -9.1344344110E+00   -9.0878769176E+00   -9.0418458034E+00
   -8.9963293633E+00   -8.9513166574E+00   -8.9067969775E+00   -8.8627593554E+00
   -8.8191940275E+00   -8.7760903667E+00   -8.7334390004E+00   -8.6912302925E+00
   -8.6494547265E+00   -8.6081038002E+00   -8.5671680951E+00   -8.5266396863E+00
   -8.4865101808E+00   -8.4467713715E+00   -8.4074160875E+00   -8.3684362184E+00
   -8.3298250773E+00   -8.2915756871E+00   -8.2536809302E+00   -8.2161349960E+00
   -8.1789311583E+00   -8.1420636761E+00   -8.1055271064E+00   -8.0693151831E+00
   -8.0334233854E+00   -7.9978463919E+00   -7.9625791000E+00   -7.9276173518E+00
   -7.8929562197E+00   -7.8585916182E+00   -7.8245196903E+00   -7.7907359256E+00
   -7.7572370499E+00   -7.7240193997E+00   -7.6910791110E+00   -7.6584132694E+00
   -7.6260184677E+00   -7.5938914440E+00   -7.5620294469E+00   -7.5304293466E+00
   -7.4990882929E+00   -7.4680036473E+00   -7.4371725203E+00   -7.4065922954E+00
   -7.3762604032E+00   -7.3461741433E+00   -7.3163309863E+00   -7.2867283914E+00
   -7.2573637848E+00   -7.2282346223E+00   -7.1993383543E+00   -7.1706724666E+00
   -7.1422343475E+00   -7.1140214079E+00   -7.0860311137E+00   -7.0582608043E+00
   -7.0307078485E+00   -7.0033695730E+00   -6.9762434276E+00   -6.9493268391E+00
   -6.9226169969E+00   -6.8961116227E+00   -6.8698084030E+00   -6.8437047766E+00
   -6.8177985494E+00   -6.7920876001E+00   -6.7665696461E+00   -6.7412425151E+00
   -6.7161041371E+00   -6.6911523159E+00   -6.6663848898E+00   -6.6417999611E+00
   -6.6173954914E+00   -6.5931693446E+00   -6.5691197342E+00   -6.5452447343E+00
   -6.5215422894E+00   -6.4980106521E+00   -6.4746480150E+00   -6.4514524601E+00
   -6.4284222097E+00   -6.4055555896E+00   -6.3828508226E+00   -6.3603060887E+00
   -6.3379198416E+00   -6.3156904170E+00   -6.2936160341E+00   -6.2716951794E+00
   -6.2499262955E+00   -6.2283077399E+00   -6.2068379247E+00   -6.1855154259E+00
   -6.1643387322E+00   -6.1433062086E+00   -6.1224165223E+00   -6.1016682436E+00
   -6.0810598742E+00   -6.0605899812E+00   -6.0402572702E+00   -6.0200603685E+00
   -5.9999977913E+00   -5.9800683161E+00   -5.9602706514E+00   -5.9406034509E+00
   -5.9210653695E+00   -5.9016552501E+00   -5.8823718452E+00   -5.8632138253E+00
   -5.8441800173E+00   -5.8252692758E+00   -5.8064804112E+00   -5.7878121192E+00
   -5.7692633750E+00   -5.7508330470E+00   -5.7325199695E+00   -5.7143229647E+00
   -5.6962410380E+00   -5.6782731076E+00   -5.6604180337E+00   -5.6426747564E+00
   -5.6250423035E+00   -5.6075196431E+00   -5.5901056663E+00   -5.5727994132E+00
   -5.5555999364E+00   -5.5385062519E+00   -5.5215172854E+00   -5.5046321596E+00
   -5.4878499557E+00   -5.4711697350E+00   -5.4545904613E+00   -5.4381113239E+00
   -5.4217314361E+00   -5.4054499022E+00   -5.3892657272E+00   -5.3731781520E+00
   -5.3571863255E+00   -5.3412893934E+00   -5.3254864037E+00   -5.3097766357E+00
   -5.2941592770E+00   -5.2786335129E+00   -5.2631984367E+00   -5.2478533532E+00
   -5.2325974922E+00   -5.2174300765E+00   -5.2023502470E+00   -5.1873573221E+00
   -5.1724505765E+00   -5.1576292690E+00   -5.1428925908E+00   -5.1282398619E+00
   -5.1136704048E+00   -5.0991835126E+00   -5.0847784296E+00   -5.0704544665E+00
   -5.0562109958E+00   -5.0420473432E+00   -5.0279628094E+00   -5.0139566853E+00
   -5.0000283953E+00   -4.9861772962E+00   -4.9724027448E+00   -4.9587040122E+00
   -4.9450805671E+00   -4.9315317984E+00   -4.9180570930E+00   -4.9046557816E+00
   -4.8913272906E+00   -4.8780710685E+00   -4.8648865303E+00   -4.8517730707E+00
   -4.8387300652E+00   -4.8257570219E+00   -4.8128533828E+00   -4.8000185902E+00
   -4.7872520206E+00   -4.7745531830E+00   -4.7619215642E+00   -4.7493566324E+00
   -4.7368578319E+00   -4.7244246020E+00   -4.7120564944E+00   -4.6997530022E+00
   -4.6875136180E+00   -4.6753377763E+00   -4.6632250223E+00   -4.6511748951E+00
   -4.6391869110E+00   -4.6272605775E+00   -4.6153953532E+00   -4.6035908459E+00
   -4.5918465945E+00   -4.5801621380E+00   -4.5685369804E+00   -4.5569706615E+00
   -4.5454627847E+00   -4.5340129106E+00   -4.5226205993E+00   -4.5112853568E+00
   -4.5000067911E+00   -4.4887845043E+00   -4.4776180772E+00   -4.4665070907E+00
   -4.4554510572E+00   -4.4444496398E+00   -4.4335024429E+00   -4.4226090670E+00
   -4.4117691046E+00   -4.4009821023E+00   -4.3902477423E+00   -4.3795656434E+00
   -4.3689354247E+00   -4.3583566900E+00   -4.3478290218E+00   -4.3373521118E+00
   -4.3269255967E+00   -4.3165491132E+00   -4.3062222798E+00   -4.2959447048E+00
   -4.2857160923E+00   -4.2755360960E+00   -4.2654043694E+00   -4.2553205494E+00
   -4.2452842598E+00   -4.2352952204E+00   -4.2253531010E+00   -4.2154575713E+00
   -4.2056082894E+00   -4.1958048855E+00   -4.1860470980E+00   -4.1763346121E+00
   -4.1666671129E+00   -4.1570442829E+00   -4.1474657497E+00   -4.1379312733E+00
   -4.1284405533E+00   -4.1189932896E+00   -4.1095891818E+00   -4.1002278774E+00
   -4.0909091298E+00   -4.0816326629E+00   -4.0723981901E+00   -4.0632054254E+00
   -4.0540540463E+00   -4.0449437844E+00   -4.0358743925E+00   -4.0268455974E+00
   -4.0178571263E+00   -4.0089086900E+00   -3.9999999911E+00   -3.9911308130E+00
   -3.9823008954E+00   -3.9735099781E+00   -3.9647578008E+00   -3.9560440523E+00
   -3.9473685266E+00   -3.9387309827E+00   -3.9301311725E+00   -3.9215688478E+00
   -3.9130437357E+00   -3.9045555849E+00   -3.8961041917E+00   -3.8876893194E+00
   -3.8793107314E+00   -3.8709681913E+00   -3.8626614119E+00   -3.8543902124E+00
   -3.8461543719E+00   -3.8379536651E+00   -3.8297878664E+00   -3.8216567318E+00
   -3.8135600214E+00   -3.8054975564E+00   -3.7974691218E+00   -3.7894745028E+00
   -3.7815134842E+00   -3.7735858147E+00   -3.7656913055E+00   -3.7578297686E+00
   -3.7500009991E+00   -3.7422047921E+00   -3.7344409426E+00   -3.7267091959E+00
   -3.7190094045E+00   -3.7113413744E+00   -3.7037049104E+00   -3.6960998171E+00
   -3.6885258896E+00   -3.6809829026E+00   -3.6734707107E+00   -3.6659891279E+00
   -3.6585379679E+00   -3.6511170444E+00   -3.6437261546E+00   -3.6363650984E+00
   -3.6290337315E+00   -3.6217318762E+00   -3.6144593550E+00   -3.6072159904E+00
   -3.6000015849E+00   -3.5928159554E+00   -3.5856589613E+00   -3.5785304334E+00
   -3.5714302023E+00   -3.5643580989E+00   -3.5573139341E+00   -3.5502975338E+00
   -3.5433087642E+00   -3.5363474640E+00   -3.5294134719E+00   -3.5225066265E+00
   -3.5156267503E+00   -3.5087736703E+00   -3.5019472628E+00   -3.4951473739E+00
   -3.4883738499E+00   -3.4816265368E+00   -3.4749052714E+00   -3.4682098750E+00
   -3.4615402365E+00   -3.4548962092E+00   -3.4482776464E+00   -3.4416844015E+00
   -3.4351163276E+00   -3.4285732351E+00   -3.4220550267E+00   -3.4155615628E+00
   -3.4090927035E+00   -3.4026483092E+00   -3.3962282398E+00   -3.3898323253E+00
   -3.3834604477E+00   -3.3771124864E+00   -3.3707883083E+00   -3.3644877798E+00
   -3.3582107677E+00   -3.3519571242E+00   -3.3457267048E+00   -3.3395194099E+00
   -3.3333351124E+00   -3.3271736853E+00   -3.3210350012E+00   -3.3149189333E+00
   -3.3088253175E+00   -3.3027540647E+00   -3.2967050576E+00   -3.2906781751E+00
   -3.2846732960E+00   -3.2786902990E+00   -3.2727290475E+00   -3.2667894131E+00
   -3.2608713050E+00   -3.2549746075E+00   -3.2490992051E+00   -3.2432449822E+00
   -3.2374118233E+00   -3.2315995821E+00   -3.2258081695E+00   -3.2200374838E+00
   -3.2142874146E+00   -3.2085578519E+00   -3.2028486855E+00   -3.1971598008E+00
   -3.1914910589E+00   -3.1858423884E+00   -3.1802136841E+00   -3.1746048411E+00
   -3.1690157543E+00   -3.1634463187E+00   -3.1578964156E+00   -3.1523659314E+00
   -3.1468547897E+00   -3.1413628905E+00   -3.1358901334E+00   -3.1304364185E+00
   -3.1250016455E+00   -3.1195856952E+00   -3.1141884714E+00   -3.1088098961E+00
   -3.1034498738E+00   -3.0981083091E+00   -3.0927851063E+00   -3.0874801701E+00
   -3.0821933834E+00   -3.0769246607E+00   -3.0716739251E+00   -3.0664410857E+00
   -3.0612260512E+00   -3.0560287308E+00   -3.0508490334E+00   -3.0456868468E+00
   -3.0405420898E+00   -3.0354146893E+00   -3.0303045586E+00   -3.0252116109E+00
   -3.0201357594E+00   -3.0150769172E+00   -3.0100349799E+00   -3.0050098641E+00
   -3.0000015033E+00   -2.9950098147E+00
  </PP_LOCAL>
 <PP_NONLOCAL>
   <PP_BETA.1
       type="real"
       size=" 602"
       columns="4"
       index="1"
       angular_momentum="0"
       cutoff_radius_index=" 282"
       cutoff_radius="    2.8100000000E+00" >
    0.0000000000E+00   -4.8770401172E-03   -9.6930123823E-03   -1.4387161125E-02
   -1.8899353794E-02   -2.3170389397E-02   -2.7142303221E-02   -3.0758666604E-02
   -3.3964880547E-02   -3.6708461994E-02   -3.8939321612E-02   -4.0610031935E-02
   -4.1676084787E-02   -4.2096136927E-02   -4.1832242836E-02   -4.0850073807E-02
   -3.9119122179E-02   -3.6612890170E-02   -3.3309062079E-02   -2.9189659481E-02
   -2.4241178327E-02   -1.8454707842E-02   -1.1826029966E-02   -4.3556993352E-03
    3.9508968750E-03    1.3083499091E-02    2.3026957174E-02    3.3761231935E-02
    4.5261418655E-02    5.7497791314E-02    7.0435867947E-02    8.4036497020E-02
    9.8255964313E-02    1.1304612127E-01    1.2835453187E-01    1.4412464128E-01
    1.6029596111E-01    1.7680427763E-01    1.9358187211E-01    2.1055776165E-01
    2.2765796031E-01    2.4480574751E-01    2.6192195659E-01    2.7892527567E-01
    2.9573256095E-01    3.1225916139E-01    3.2841925332E-01    3.4412617765E-01
    3.5929280433E-01    3.7383188437E-01    3.8765640858E-01    4.0067995181E-01
    4.1281709938E-01    4.2398376268E-01    4.3409753402E-01    4.4307814269E-01
    4.5084766089E-01    4.5733105620E-01    4.6245630905E-01    4.6615500445E-01
    4.6836240383E-01    4.6901799104E-01    4.6806563346E-01    4.6545386360E-01
    4.6113631558E-01    4.5507179846E-01    4.4722455782E-01    4.3756467276E-01