<UPF version="2.0.1">
  <PP_INFO>

 This pseudopotential file has been produced using the code
 ONCVPSP  (Optimized Norm-Conservinng Vanderbilt PSeudopotential)
 scalar-relativistic version 2.1.1, 03/26/2014 by D. R. Hamann
 The code is available through a link at URL www.mat-simresearch.com.
 Documentation with the package provides a full discription of the
 input data below.


 While it is not required under the terms of the GNU GPL, it is
 suggested that you cite D. R. Hamann, Phys. Rev. B 88, 085117 (2013)
 in any publication using these pseudopotentials.


 Copyright 2015 The Regents of the University of California
 
 This work is licensed under the Creative Commons Attribution-ShareAlike 
 4.0 International License. To view a copy of this license, visit 
 http://creativecommons.org/licenses/by-sa/4.0/ or send a letter to 
 Creative Commons, PO Box 1866, Mountain View, CA 94042, USA.
 
 This pseudopotential is part of the Schlipf-Gygi norm-conserving 
 pseudopotential library. Its construction parameters were tuned to 
 reproduce materials of a training set with very high accuracy and 
 should be suitable as a general purpose pseudopotential to treat a 
 variety of different compounds. For details of the construction and 
 testing of the pseudopotential please refer to:
 
 [insert reference to paper here]
 
 We kindly ask that you include this reference in all publications 
 associated to this pseudopotential.


    <PP_INPUTFILE>
# ATOM AND REFERENCE CONFIGURATION
# atsym  z    nc    nv    iexc   psfile
  F  9.00     1     2     4      upf
#
#   n    l    f        energy (Ha)
    1    0    2.00
    2    0    2.00
    2    1    5.00
#
# PSEUDOPOTENTIAL AND OPTIMIZATION
# lmax
    1
#
#   l,   rc,     ep,   ncon, nbas, qcut
    0   1.58478  -1.09879    5    8   8.73495
    1   1.66223  -0.40834    5    8   8.69707
#
# LOCAL POTENTIAL
# lloc, lpopt,  rc(5),   dvloc0
    4    5   0.97178      0.00000
#
# VANDERBILT-KLEINMAN-BYLANDER PROJECTORs
# l, nproj, debl
    0    2   1.51125
    1    2   1.53167
#
# MODEL CORE CHARGE
# icmod, fcfact
    0   0.00000
#
# LOG DERIVATIVE ANALYSIS
# epsh1, epsh2, depsh
   -5.00    3.00    0.02
#
# OUTPUT GRID
# rlmax, drl
    6.00    0.01
#
# TEST CONFIGURATIONS
# ncnf
    0
# nvcnf
#   n    l    f
    </PP_INPUTFILE>
  </PP_INFO>
  <!--                               -->
  <!-- END OF HUMAN READABLE SECTION -->
  <!--                               -->
    <PP_HEADER
       generated="Generated using ONCVPSP code by D. R. Hamann"
       author="Martin Schlipf and Francois Gygi"
       date="150105"
       comment=""
       element="F "
       pseudo_type="NC"
       relativistic="scalar"
       is_ultrasoft="F"
       is_paw="F"
       is_coulomb="F"
       has_so="F"
       has_wfc="F"
       has_gipaw="F"
       core_correction="F"
       functional="PBE"
       z_valence="    7.00"
       total_psenergy="  -2.37354046893E+01"
       rho_cutoff="   6.01000000000E+00"
       l_max="1"
       l_local="-1"
       mesh_size="   602"
       number_of_wfc="0"
       number_of_proj="4"/>
 <PP_MESH>
   <PP_R type="real"  size=" 602" columns="8">
    0.0000    0.0100    0.0200    0.0300    0.0400    0.0500    0.0600    0.0700
    0.0800    0.0900    0.1000    0.1100    0.1200    0.1300    0.1400    0.1500
    0.1600    0.1700    0.1800    0.1900    0.2000    0.2100    0.2200    0.2300
    0.2400    0.2500    0.2600    0.2700    0.2800    0.2900    0.3000    0.3100
    0.3200    0.3300    0.3400    0.3500    0.3600    0.3700    0.3800    0.3900
    0.4000    0.4100    0.4200    0.4300    0.4400    0.4500    0.4600    0.4700
    0.4800    0.4900    0.5000    0.5100    0.5200    0.5300    0.5400    0.5500
    0.5600    0.5700    0.5800    0.5900    0.6000    0.6100    0.6200    0.6300
    0.6400    0.6500    0.6600    0.6700    0.6800    0.6900    0.7000    0.7100
    0.7200    0.7300    0.7400    0.7500    0.7600    0.7700    0.7800    0.7900
    0.8000    0.8100    0.8200    0.8300    0.8400    0.8500    0.8600    0.8700
    0.8800    0.8900    0.9000    0.9100    0.9200    0.9300    0.9400    0.9500
    0.9600    0.9700    0.9800    0.9900    1.0000    1.0100    1.0200    1.0300
    1.0400    1.0500    1.0600    1.0700    1.0800    1.0900    1.1000    1.1100
    1.1200    1.1300    1.1400    1.1500    1.1600    1.1700    1.1800    1.1900
    1.2000    1.2100    1.2200    1.2300    1.2400    1.2500    1.2600    1.2700
    1.2800    1.2900    1.3000    1.3100    1.3200    1.3300    1.3400    1.3500
    1.3600    1.3700    1.3800    1.3900    1.4000    1.4100    1.4200    1.4300
    1.4400    1.4500    1.4600    1.4700    1.4800    1.4900    1.5000    1.5100
    1.5200    1.5300    1.5400    1.5500    1.5600    1.5700    1.5800    1.5900
    1.6000    1.6100    1.6200    1.6300    1.6400    1.6500    1.6600    1.6700
    1.6800    1.6900    1.7000    1.7100    1.7200    1.7300    1.7400    1.7500
    1.7600    1.7700    1.7800    1.7900    1.8000    1.8100    1.8200    1.8300
    1.8400    1.8500    1.8600    1.8700    1.8800    1.8900    1.9000    1.9100
    1.9200    1.9300    1.9400    1.9500    1.9600    1.9700    1.9800    1.9900
    2.0000    2.0100    2.0200    2.0300    2.0400    2.0500    2.0600    2.0700
    2.0800    2.0900    2.1000    2.1100    2.1200    2.1300    2.1400    2.1500
    2.1600    2.1700    2.1800    2.1900    2.2000    2.2100    2.2200    2.2300
    2.2400    2.2500    2.2600    2.2700    2.2800    2.2900    2.3000    2.3100
    2.3200    2.3300    2.3400    2.3500    2.3600    2.3700    2.3800    2.3900
    2.4000    2.4100    2.4200    2.4300    2.4400    2.4500    2.4600    2.4700
    2.4800    2.4900    2.5000    2.5100    2.5200    2.5300    2.5400    2.5500
    2.5600    2.5700    2.5800    2.5900    2.6000    2.6100    2.6200    2.6300
    2.6400    2.6500    2.6600    2.6700    2.6800    2.6900    2.7000    2.7100
    2.7200    2.7300    2.7400    2.7500    2.7600    2.7700    2.7800    2.7900
    2.8000    2.8100    2.8200    2.8300    2.8400    2.8500    2.8600    2.8700
    2.8800    2.8900    2.9000    2.9100    2.9200    2.9300    2.9400    2.9500
    2.9600    2.9700    2.9800    2.9900    3.0000    3.0100    3.0200    3.0300
    3.0400    3.0500    3.0600    3.0700    3.0800    3.0900    3.1000    3.1100
    3.1200    3.1300    3.1400    3.1500    3.1600    3.1700    3.1800    3.1900
    3.2000    3.2100    3.2200    3.2300    3.2400    3.2500    3.2600    3.2700
    3.2800    3.2900    3.3000    3.3100    3.3200    3.3300    3.3400    3.3500
    3.3600    3.3700    3.3800    3.3900    3.4000    3.4100    3.4200    3.4300
    3.4400    3.4500    3.4600    3.4700    3.4800    3.4900    3.5000    3.5100
    3.5200    3.5300    3.5400    3.5500    3.5600    3.5700    3.5800    3.5900
    3.6000    3.6100    3.6200    3.6300    3.6400    3.6500    3.6600    3.6700
    3.6800    3.6900    3.7000    3.7100    3.7200    3.7300    3.7400    3.7500
    3.7600    3.7700    3.7800    3.7900    3.8000    3.8100    3.8200    3.8300
    3.8400    3.8500    3.8600    3.8700    3.8800    3.8900    3.9000    3.9100
    3.9200    3.9300    3.9400    3.9500    3.9600    3.9700    3.9800    3.9900
    4.0000    4.0100    4.0200    4.0300    4.0400    4.0500    4.0600    4.0700
    4.0800    4.0900    4.1000    4.1100    4.1200    4.1300    4.1400    4.1500
    4.1600    4.1700    4.1800    4.1900    4.2000    4.2100    4.2200    4.2300
    4.2400    4.2500    4.2600    4.2700    4.2800    4.2900    4.3000    4.3100
    4.3200    4.3300    4.3400    4.3500    4.3600    4.3700    4.3800    4.3900
    4.4000    4.4100    4.4200    4.4300    4.4400    4.4500    4.4600    4.4700
    4.4800    4.4900    4.5000    4.5100    4.5200    4.5300    4.5400    4.5500
    4.5600    4.5700    4.5800    4.5900    4.6000    4.6100    4.6200    4.6300
    4.6400    4.6500    4.6600    4.6700    4.6800    4.6900    4.7000    4.7100
    4.7200    4.7300    4.7400    4.7500    4.7600    4.7700    4.7800    4.7900
    4.8000    4.8100    4.8200    4.8300    4.8400    4.8500    4.8600    4.8700
    4.8800    4.8900    4.9000    4.9100    4.9200    4.9300    4.9400    4.9500
    4.9600    4.9700    4.9800    4.9900    5.0000    5.0100    5.0200    5.0300
    5.0400    5.0500    5.0600    5.0700    5.0800    5.0900    5.1000    5.1100
    5.1200    5.1300    5.1400    5.1500    5.1600    5.1700    5.1800    5.1900
    5.2000    5.2100    5.2200    5.2300    5.2400    5.2500    5.2600    5.2700
    5.2800    5.2900    5.3000    5.3100    5.3200    5.3300    5.3400    5.3500
    5.3600    5.3700    5.3800    5.3900    5.4000    5.4100    5.4200    5.4300
    5.4400    5.4500    5.4600    5.4700    5.4800    5.4900    5.5000    5.5100
    5.5200    5.5300    5.5400    5.5500    5.5600    5.5700    5.5800    5.5900
    5.6000    5.6100    5.6200    5.6300    5.6400    5.6500    5.6600    5.6700
    5.6800    5.6900    5.7000    5.7100    5.7200    5.7300    5.7400    5.7500
    5.7600    5.7700    5.7800    5.7900    5.8000    5.8100    5.8200    5.8300
    5.8400    5.8500    5.8600    5.8700    5.8800    5.8900    5.9000    5.9100
    5.9200    5.9300    5.9400    5.9500    5.9600    5.9700    5.9800    5.9900
    6.0000    6.0100
   </PP_R>
   <PP_RAB type="real"  size=" 602" columns="8">
    0.0100    0.0100    0.0100    0.0100    0.0100    0.0100    0.0100    0.0100
    0.0100    0.0100    0.0100    0.0100    0.0100    0.0100    0.0100    0.0100
    0.0100    0.0100    0.0100    0.0100    0.0100    0.0100    0.0100    0.0100
    0.0100    0.0100    0.0100    0.0100    0.0100    0.0100    0.0100    0.0100
    0.0100    0.0100    0.0100    0.0100    0.0100    0.0100    0.0100    0.0100
    0.0100    0.0100    0.0100    0.0100    0.0100    0.0100    0.0100    0.0100
    0.0100    0.0100    0.0100    0.0100    0.0100    0.0100    0.0100    0.0100
    0.0100    0.0100    0.0100    0.0100    0.0100    0.0100    0.0100    0.0100
    0.0100    0.0100    0.0100    0.0100    0.0100    0.0100    0.0100    0.0100
    0.0100    0.0100    0.0100    0.0100    0.0100    0.0100    0.0100    0.0100
    0.0100    0.0100    0.0100    0.0100    0.0100    0.0100    0.0100    0.0100
    0.0100    0.0100    0.0100    0.0100    0.0100    0.0100    0.0100    0.0100
    0.0100    0.0100    0.0100    0.0100    0.0100    0.0100    0.0100    0.0100
    0.0100    0.0100    0.0100    0.0100    0.0100    0.0100    0.0100    0.0100
    0.0100    0.0100    0.0100    0.0100    0.0100    0.0100    0.0100    0.0100
    0.0100    0.0100    0.0100    0.0100    0.0100    0.0100    0.0100    0.0100
    0.0100    0.0100    0.0100    0.0100    0.0100    0.0100    0.0100    0.0100
    0.0100    0.0100    0.0100    0.0100    0.0100    0.0100    0.0100    0.0100
    0.0100    0.0100    0.0100    0.0100    0.0100    0.0100    0.0100    0.0100
    0.0100    0.0100    0.0100    0.0100    0.0100    0.0100    0.0100    0.0100
    0.0100    0.0100    0.0100    0.0100    0.0100    0.0100    0.0100    0.0100
    0.0100    0.0100    0.0100    0.0100    0.0100    0.0100    0.0100    0.0100
    0.0100    0.0100    0.0100    0.0100    0.0100    0.0100    0.0100    0.0100
    0.0100    0.0100    0.0100    0.0100    0.0100    0.0100    0.0100    0.0100
    0.0100    0.0100    0.0100    0.0100    0.0100    0.0100    0.0100    0.0100
    0.0100    0.0100    0.0100    0.0100    0.0100    0.0100    0.0100    0.0100
    0.0100    0.0100    0.0100    0.0100    0.0100    0.0100    0.0100    0.0100
    0.0100    0.0100    0.0100    0.0100    0.0100    0.0100    0.0100    0.0100
    0.0100    0.0100    0.0100    0.0100    0.0100    0.0100    0.0100    0.0100
    0.0100    0.0100    0.0100    0.0100    0.0100    0.0100    0.0100    0.0100
    0.0100    0.0100    0.0100    0.0100    0.0100    0.0100    0.0100    0.0100
    0.0100    0.0100    0.0100    0.0100    0.0100    0.0100    0.0100    0.0100
    0.0100    0.0100    0.0100    0.0100    0.0100    0.0100    0.0100    0.0100
    0.0100    0.0100    0.0100    0.0100    0.0100    0.0100    0.0100    0.0100
    0.0100    0.0100    0.0100    0.0100    0.0100    0.0100    0.0100    0.0100
    0.0100    0.0100    0.0100    0.0100    0.0100    0.0100    0.0100    0.0100
    0.0100    0.0100    0.0100    0.0100    0.0100    0.0100    0.0100    0.0100
    0.0100    0.0100    0.0100    0.0100    0.0100    0.0100    0.0100    0.0100
    0.0100    0.0100    0.0100    0.0100    0.0100    0.0100    0.0100    0.0100
    0.0100    0.0100    0.0100    0.0100    0.0100    0.0100    0.0100    0.0100
    0.0100    0.0100    0.0100    0.0100    0.0100    0.0100    0.0100    0.0100
    0.0100    0.0100    0.0100    0.0100    0.0100    0.0100    0.0100    0.0100
    0.0100    0.0100    0.0100    0.0100    0.0100    0.0100    0.0100    0.0100
    0.0100    0.0100    0.0100    0.0100    0.0100    0.0100    0.0100    0.0100
    0.0100    0.0100    0.0100    0.0100    0.0100    0.0100    0.0100    0.0100
    0.0100    0.0100    0.0100    0.0100    0.0100    0.0100    0.0100    0.0100
    0.0100    0.0100    0.0100    0.0100    0.0100    0.0100    0.0100    0.0100
    0.0100    0.0100    0.0100    0.0100    0.0100    0.0100    0.0100    0.0100
    0.0100    0.0100    0.0100    0.0100    0.0100    0.0100    0.0100    0.0100
    0.0100    0.0100    0.0100    0.0100    0.0100    0.0100    0.0100    0.0100
    0.0100    0.0100    0.0100    0.0100    0.0100    0.0100    0.0100    0.0100
    0.0100    0.0100    0.0100    0.0100    0.0100    0.0100    0.0100    0.0100
    0.0100    0.0100    0.0100    0.0100    0.0100    0.0100    0.0100    0.0100
    0.0100    0.0100    0.0100    0.0100    0.0100    0.0100    0.0100    0.0100
    0.0100    0.0100    0.0100    0.0100    0.0100    0.0100    0.0100    0.0100
    0.0100    0.0100    0.0100    0.0100    0.0100    0.0100    0.0100    0.0100
    0.0100    0.0100    0.0100    0.0100    0.0100    0.0100    0.0100    0.0100
    0.0100    0.0100    0.0100    0.0100    0.0100    0.0100    0.0100    0.0100
    0.0100    0.0100    0.0100    0.0100    0.0100    0.0100    0.0100    0.0100
    0.0100    0.0100    0.0100    0.0100    0.0100    0.0100    0.0100    0.0100
    0.0100    0.0100    0.0100    0.0100    0.0100    0.0100    0.0100    0.0100
    0.0100    0.0100    0.0100    0.0100    0.0100    0.0100    0.0100    0.0100
    0.0100    0.0100    0.0100    0.0100    0.0100    0.0100    0.0100    0.0100
    0.0100    0.0100    0.0100    0.0100    0.0100    0.0100    0.0100    0.0100
    0.0100    0.0100    0.0100    0.0100    0.0100    0.0100    0.0100    0.0100
    0.0100    0.0100    0.0100    0.0100    0.0100    0.0100    0.0100    0.0100
    0.0100    0.0100    0.0100    0.0100    0.0100    0.0100    0.0100    0.0100
    0.0100    0.0100    0.0100    0.0100    0.0100    0.0100    0.0100    0.0100
    0.0100    0.0100    0.0100    0.0100    0.0100    0.0100    0.0100    0.0100
    0.0100    0.0100    0.0100    0.0100    0.0100    0.0100    0.0100    0.0100
    0.0100    0.0100    0.0100    0.0100    0.0100    0.0100    0.0100    0.0100
    0.0100    0.0100    0.0100    0.0100    0.0100    0.0100    0.0100    0.0100
    0.0100    0.0100    0.0100    0.0100    0.0100    0.0100    0.0100    0.0100
    0.0100    0.0100    0.0100    0.0100    0.0100    0.0100    0.0100    0.0100
    0.0100    0.0100    0.0100    0.0100    0.0100    0.0100    0.0100    0.0100
    0.0100    0.0100
   </PP_RAB>
 </PP_MESH>
  <PP_LOCAL type="real"  size=" 602" columns="4">
   -3.1532221107E+01   -3.1595478489E+01   -3.1738685074E+01   -3.1907877243E+01
   -3.2049091372E+01   -3.2134851855E+01   -3.2161065818E+01   -3.2135920325E+01
   -3.2071126088E+01   -3.1977488556E+01   -3.1863434399E+01   -3.1734965933E+01
   -3.1596125546E+01   -3.1449541783E+01   -3.1296895868E+01   -3.1139269817E+01
   -3.0977385573E+01   -3.0811759007E+01   -3.0642793212E+01   -3.0470831178E+01
   -3.0296182850E+01   -3.0119136896E+01   -2.9939964051E+01   -2.9758916228E+01
   -2.9576223827E+01   -2.9392092491E+01   -2.9206699871E+01   -2.9020192486E+01
   -2.8832682739E+01   -2.8644245942E+01   -2.8454917412E+01   -2.8264689783E+01
   -2.8073510821E+01   -2.7881282138E+01   -2.7687859242E+01   -2.7493053877E+01
   -2.7296638358E+01   -2.7098353254E+01   -2.6897917634E+01   -2.6695042087E+01
   -2.6489443815E+01   -2.6280862692E+01   -2.6069077126E+01   -2.5853918352E+01
   -2.5635281852E+01   -2.5413134883E+01   -2.5187519527E+01   -2.4958551156E+01
   -2.4726412628E+01   -2.4491345579E+01   -2.4253639021E+01   -2.4013616661E+01
   -2.3771624683E+01   -2.3528020235E+01   -2.3283161199E+01   -2.3037398126E+01
   -2.2791068025E+01   -2.2544490282E+01   -2.2297963978E+01   -2.2051766989E+01
   -2.1806156110E+01   -2.1561367463E+01   -2.1317618757E+01   -2.1075109814E+01
   -2.0834025167E+01   -2.0594535793E+01   -2.0356800054E+01   -2.0120965805E+01
   -1.9887171500E+01   -1.9655547171E+01   -1.9426215124E+01   -1.9199290852E+01
   -1.8974883418E+01   -1.8753095796E+01   -1.8534025123E+01   -1.8317762603E+01
   -1.8104393739E+01   -1.7893998199E+01   -1.7686649699E+01   -1.7482415841E+01
   -1.7281357925E+01   -1.7083530724E+01   -1.6888982247E+01   -1.6697753494E+01
   -1.6509878191E+01   -1.6325382529E+01   -1.6144284894E+01   -1.5966595599E+01
   -1.5792316607E+01   -1.5621441266E+01   -1.5453954026E+01   -1.5289830168E+01
   -1.5129035529E+01   -1.4971526213E+01   -1.4817248315E+01   -1.4666137628E+01
   -1.4518119428E+01   -1.4373108287E+01   -1.4231006926E+01   -1.4091714223E+01
   -1.3955131690E+01   -1.3821165428E+01   -1.3689725951E+01   -1.3560727783E+01
   -1.3434089761E+01   -1.3309734625E+01   -1.3187588737E+01   -1.3067582022E+01
   -1.2949647602E+01   -1.2833722239E+01   -1.2719745863E+01   -1.2607661293E+01
   -1.2497414072E+01   -1.2388952600E+01   -1.2282228249E+01   -1.2177194686E+01
   -1.2073807753E+01   -1.1972025927E+01   -1.1871810033E+01   -1.1773122779E+01
   -1.1675928570E+01   -1.1580194509E+01   -1.1485889120E+01   -1.1392982320E+01
   -1.1301446252E+01   -1.1211254433E+01   -1.1122381433E+01   -1.1034803608E+01
   -1.0948498483E+01   -1.0863444311E+01   -1.0779620806E+01   -1.0697008442E+01
   -1.0615588168E+01   -1.0535342065E+01   -1.0456252470E+01   -1.0378302141E+01
   -1.0301474355E+01   -1.0225752426E+01   -1.0151119919E+01   -1.0077560367E+01
   -1.0005057358E+01   -9.9335942731E+00   -9.8631544229E+00   -9.7937209123E+00
   -9.7252765304E+00   -9.6578040444E+00   -9.5912856903E+00   -9.5257037493E+00
   -9.4610401057E+00   -9.3972765929E+00   -9.3343948718E+00   -9.2723765749E+00
   -9.2112032621E+00   -9.1508566973E+00   -9.0913185535E+00   -9.0325710012E+00
   -8.9745961866E+00   -8.9173768549E+00   -8.8608959922E+00   -8.8051371184E+00
   -8.7500844200E+00   -8.6957224979E+00   -8.6420369356E+00   -8.5890134570E+00
   -8.5366390043E+00   -8.4849004018E+00   -8.4337858669E+00   -8.3832833738E+00
   -8.3333822020E+00   -8.2840714673E+00   -8.2353409886E+00   -8.1871804242E+00
   -8.1395800053E+00   -8.0925297962E+00   -8.0460204716E+00   -8.0000426296E+00
   -7.9545873189E+00   -7.9096456069E+00   -7.8652088769E+00   -7.8212686656E+00
   -7.7778166543E+00   -7.7348448410E+00   -7.6923451715E+00   -7.6503100955E+00
   -7.6087317958E+00   -7.5676031435E+00   -7.5269165888E+00   -7.4866653125E+00
   -7.4468421629E+00   -7.4074404781E+00   -7.3684535463E+00   -7.3298748309E+00
   -7.2916980569E+00   -7.2539167922E+00   -7.2165251575E+00   -7.1795168991E+00
   -7.1428863732E+00   -7.1066276965E+00   -7.0707352691E+00   -7.0352036355E+00
   -7.0000272191E+00   -6.9652009361E+00   -6.9307193630E+00   -6.8965775766E+00
   -6.8627705195E+00   -6.8292932415E+00   -6.7961410955E+00   -6.7633091234E+00
   -6.7307929400E+00   -6.6985878974E+00   -6.6666895443E+00   -6.6350936470E+00
   -6.6037956862E+00   -6.5727916984E+00   -6.5420774553E+00   -6.5116488916E+00
   -6.4815021700E+00   -6.4516331846E+00   -6.4220382939E+00   -6.3927136985E+00
   -6.3636556204E+00   -6.3348606021E+00   -6.3063249345E+00   -6.2780452059E+00
   -6.2500180547E+00   -6.2222399092E+00   -6.1947076696E+00   -6.1674180156E+00
   -6.1403676831E+00   -6.1135536801E+00   -6.0869727934E+00   -6.0606220410E+00
   -6.0344985282E+00   -6.0085991542E+00   -5.9829211881E+00   -5.9574618160E+00
   -5.9322180946E+00   -5.9071874719E+00   -5.8823672117E+00   -5.8577545794E+00
   -5.8333471233E+00   -5.8091422106E+00   -5.7851372931E+00   -5.7613300161E+00
   -5.7377178513E+00   -5.7142984140E+00   -5.6910694456E+00   -5.6680285225E+00
   -5.6451734023E+00   -5.6225019218E+00   -5.6000117626E+00   -5.5777008038E+00
   -5.5555669784E+00   -5.5336080725E+00   -5.5118220681E+00   -5.4902069945E+00
   -5.4687607425E+00   -5.4474813788E+00   -5.4263670296E+00   -5.4054156903E+00
   -5.3846254956E+00   -5.3639946692E+00   -5.3435213108E+00   -5.3232036080E+00
   -5.3030398813E+00   -5.2830283359E+00   -5.2631671973E+00   -5.2434548829E+00
   -5.2238897032E+00   -5.2044699097E+00   -5.1851940146E+00   -5.1660604246E+00
   -5.1470674363E+00   -5.1282136243E+00   -5.1094974795E+00   -5.0909174015E+00
   -5.0724719581E+00   -5.0541597420E+00   -5.0359792589E+00   -5.0179290576E+00
   -5.0000078312E+00   -4.9822141930E+00   -4.9645466652E+00   -4.9470040364E+00
   -4.9295849901E+00   -4.9122881334E+00   -4.8951122293E+00   -4.8780560604E+00
   -4.8611183414E+00   -4.8442977816E+00   -4.8275932648E+00   -4.8110035943E+00
   -4.7945274874E+00   -4.7781638569E+00   -4.7619115832E+00   -4.7457694908E+00
   -4.7297364177E+00   -4.7138113480E+00   -4.6979931939E+00   -4.6822807880E+00
   -4.6666731380E+00   -4.6511692299E+00   -4.6357680058E+00   -4.6204683798E+00
   -4.6052694421E+00   -4.5901702041E+00   -4.5751696191E+00   -4.5602667403E+00
   -4.5454606672E+00   -4.5307504570E+00   -4.5161350814E+00   -4.5016137146E+00
   -4.4871854664E+00   -4.4728494180E+00   -4.4586046253E+00   -4.4444503049E+00
   -4.4303855999E+00   -4.4164096110E+00   -4.4025214906E+00   -4.3887204726E+00
   -4.3750057399E+00   -4.3613764167E+00   -4.3478317376E+00   -4.3343709555E+00
   -4.3209932916E+00   -4.3076978967E+00   -4.2944840739E+00   -4.2813510979E+00
   -4.2682982260E+00   -4.2553246387E+00   -4.2424296947E+00   -4.2296126929E+00
   -4.2168729256E+00   -4.2042096048E+00   -4.1916221329E+00   -4.1791098364E+00
   -4.1666720403E+00   -4.1543079905E+00   -4.1420171219E+00   -4.1297987911E+00
   -4.1176523546E+00   -4.1055770937E+00   -4.0935724657E+00   -4.0816378600E+00
   -4.0697726630E+00   -4.0579761930E+00   -4.0462479204E+00   -4.0345872693E+00
   -4.0229936547E+00   -4.0114664342E+00   -4.0000050815E+00   -3.9886090580E+00
   -3.9772778060E+00   -3.9660107241E+00   -3.9548072810E+00   -3.9436669767E+00
   -3.9325892797E+00   -3.9215736322E+00   -3.9106194894E+00   -3.8997263916E+00
   -3.8888938319E+00   -3.8781212984E+00   -3.8674082259E+00   -3.8567541955E+00
   -3.8461587240E+00   -3.8356213281E+00   -3.8251414732E+00   -3.8147187249E+00
   -3.8043526410E+00   -3.7940427607E+00   -3.7837885986E+00   -3.7735896819E+00
   -3.7634456151E+00   -3.7533559589E+00   -3.7433202740E+00   -3.7333380611E+00
   -3.7234089538E+00   -3.7135325387E+00   -3.7037083970E+00   -3.6939360815E+00
   -3.6842151726E+00   -3.6745453081E+00   -3.6649260887E+00   -3.6553571149E+00
   -3.6458379321E+00   -3.6363682052E+00   -3.6269475609E+00   -3.6175756183E+00
   -3.6082519784E+00   -3.5989762400E+00   -3.5897480836E+00   -3.5805671465E+00
   -3.5714330655E+00   -3.5623454389E+00   -3.5533039308E+00   -3.5443082173E+00
   -3.5353579523E+00   -3.5264527898E+00   -3.5175923296E+00   -3.5087762901E+00
   -3.5000043456E+00   -3.4912761662E+00   -3.4825914123E+00   -3.4739497181E+00
   -3.4653508168E+00   -3.4567943938E+00   -3.4482801345E+00   -3.4398077046E+00
   -3.4313767770E+00   -3.4229870888E+00   -3.4146383399E+00   -3.4063302306E+00
   -3.3980624352E+00   -3.3898346558E+00   -3.3816466364E+00   -3.3734980910E+00
   -3.3653887336E+00   -3.3573182499E+00   -3.3492863632E+00   -3.3412928269E+00
   -3.3333373681E+00   -3.3254197144E+00   -3.3175395652E+00   -3.3096966571E+00
   -3.3018907553E+00   -3.2941215999E+00   -3.2863889309E+00   -3.2786924642E+00
   -3.2710319422E+00   -3.2634071444E+00   -3.2558178230E+00   -3.2482637303E+00
   -3.2407446006E+00   -3.2332601752E+00   -3.2258102504E+00   -3.2183945899E+00
   -3.2110129574E+00   -3.2036651083E+00   -3.1963507761E+00   -3.1890697759E+00
   -3.1818218824E+00   -3.1746068703E+00   -3.1674245144E+00   -3.1602745456E+00
   -3.1531567885E+00   -3.1460710318E+00   -3.1390170609E+00   -3.1319946609E+00
   -3.1250035878E+00   -3.1180436444E+00   -3.1111146437E+00   -3.1042163809E+00
   -3.0973486514E+00   -3.0905112384E+00   -3.0837039176E+00   -3.0769265276E+00
   -3.0701788730E+00   -3.0634607588E+00   -3.0567719896E+00   -3.0501123338E+00
   -3.0434816320E+00   -3.0368797061E+00   -3.0303063698E+00   -3.0237614372E+00
   -3.0172447078E+00   -3.0107559829E+00   -3.0042951147E+00   -2.9978619256E+00
   -2.9914562381E+00   -2.9850778749E+00   -2.9787266262E+00   -2.9724023426E+00
   -2.9661048653E+00   -2.9598340251E+00   -2.9535896529E+00   -2.9473715739E+00
   -2.9411795896E+00   -2.9350135744E+00   -2.9288733670E+00   -2.9227588062E+00
   -2.9166697306E+00   -2.9106059613E+00   -2.9045673346E+00   -2.8985537198E+00
   -2.8925649632E+00   -2.8866009110E+00   -2.8806614095E+00   -2.8747462783E+00
   -2.8688553814E+00   -2.8629885856E+00   -2.8571457441E+00   -2.8513267105E+00
   -2.8455313381E+00   -2.8397594484E+00   -2.8340109254E+00   -2.8282856361E+00
   -2.8225834407E+00   -2.8169041995E+00   -2.8112477726E+00   -2.8056139857E+00
   -2.8000027365E+00   -2.7944138947E+00   -2.7888473270E+00   -2.7833029001E+00
   -2.7777804808E+00   -2.7722799012E+00   -2.7668010663E+00   -2.7613438511E+00
   -2.7559081285E+00   -2.7504937715E+00   -2.7451006531E+00   -2.7397286140E+00
   -2.7343775606E+00   -2.7290473757E+00   -2.7237379381E+00   -2.7184491266E+00
   -2.7131808201E+00   -2.7079328702E+00   -2.7027051793E+00   -2.6974976398E+00
   -2.6923101363E+00   -2.6871425533E+00   -2.6819947753E+00   -2.6768666667E+00
   -2.6717581206E+00   -2.6666690413E+00   -2.6615993188E+00   -2.6565488430E+00
   -2.6515175036E+00   -2.6465051801E+00   -2.6415117513E+00   -2.6365371353E+00
   -2.6315812271E+00   -2.6266439217E+00   -2.6217251141E+00   -2.6168246994E+00
   -2.6119425412E+00   -2.6070785694E+00   -2.6022326849E+00   -2.5974047878E+00
   -2.5925947780E+00   -2.5878025552E+00   -2.5830280019E+00   -2.5782710233E+00
   -2.5735315388E+00   -2.5688094527E+00   -2.5641046697E+00   -2.5594170944E+00
   -2.5547466298E+00   -2.5500931528E+00   -2.5454566016E+00   -2.5408368854E+00
   -2.5362339132E+00   -2.5316475940E+00   -2.5270778368E+00   -2.5225245360E+00
   -2.5179876010E+00   -2.5134669613E+00   -2.5089625300E+00   -2.5044742204E+00
   -2.5000019459E+00   -2.4955456195E+00   -2.4911051303E+00   -2.4866804135E+00
   -2.4822713921E+00   -2.4778779831E+00   -2.4735001041E+00   -2.4691376721E+00
   -2.4647906022E+00   -2.4604587878E+00   -2.4561421765E+00   -2.4518406895E+00
   -2.4475542479E+00   -2.4432827729E+00   -2.4390261857E+00   -2.4347843996E+00
   -2.4305573237E+00   -2.4263449036E+00   -2.4221470641E+00   -2.4179637299E+00
   -2.4137948261E+00   -2.4096402773E+00   -2.4054999979E+00   -2.4013739071E+00
   -2.3972619505E+00   -2.3931640565E+00   -2.3890801534E+00   -2.3850101696E+00
   -2.3809540333E+00   -2.3769116622E+00   -2.3728829801E+00   -2.3688679351E+00
   -2.3648664589E+00   -2.3608784832E+00   -2.3569039396E+00   -2.3529427598E+00
   -2.3489948667E+00   -2.3450601839E+00   -2.3411386641E+00   -2.3372302421E+00
   -2.3333348527E+00   -2.3294524309E+00
  </PP_LOCAL>
 <PP_NONLOCAL>
   <PP_BETA.1
       type="real"
       size=" 602"
       columns="4"
       index="1"
       angular_momentum="0"
       cutoff_radius_index=" 170"
       cutoff_radius="    1.6900000000E+00" >
    0.0000000000E+00   -8.2765367661E-02   -1.6535439277E-01   -2.4759073313E-01
   -3.2929805361E-01   -4.1030004538E-01   -4.9042046381E-01   -5.6948319073E-01
   -6.4731232665E-01   -7.2373231787E-01   -7.9856812308E-01   -8.7164542344E-01
   -9.4279087946E-01   -1.0118324374E+00   -1.0785996870E+00   -1.1429242724E+00
   -1.2046403547E+00   -1.2635851290E+00   -1.3195993906E+00   -1.3725281521E+00
   -1.4222213049E+00   -1.4685343244E+00   -1.5113290116E+00   -1.5504742676E+00
   -1.5858468932E+00   -1.6173324094E+00   -1.6448258870E+00   -1.6682327836E+00
   -1.6874697713E+00   -1.7024655547E+00   -1.7131616646E+00   -1.7195132203E+00
   -1.7214896476E+00   -1.7190753488E+00   -1.7122703208E+00   -1.7010906727E+00
   -1.6855691189E+00   -1.6657553283E+00   -1.6417162121E+00   -1.6135361183E+00
   -1.5813168878E+00   -1.5451778198E+00   -1.5052555146E+00   -1.4617035941E+00
   -1.4146922985E+00   -1.3644079581E+00   -1.3110523391E+00   -1.2548418642E+00
   -1.1960067203E+00   -1.1347898338E+00   -1.0714457210E+00   -1.0062392688E+00
   -9.3944443284E-01   -8.7134265843E-01   -8.0222155879E-01   -7.3237316395E-01
   -6.6209233374E-01   -5.9167508860E-01   -5.2141676925E-01   -4.5161035964E-01
   -3.8254475928E-01   -3.1450270459E-01   -2.4775971028E-01   -1.8258139941E-01
   -1.1922254256E-01   -5.7925627099E-02    1.0816413515E-03    5.7586891468E-02
    1.1139453579E-01    1.6232708368E-01    2.1022662989E-01    2.5495518882E-01
    2.9639569708E-01    3.3445262830E-01    3.6905235947E-01    4.0014400110E-01
    4.2769890970E-01    4.5171084310E-01    4.7219572975E-01    4.8919125795E-01
    5.0275628620E-01    5.1297007788E-01    5.1993136431E-01    5.2375724189E-01
    5.2458191002E-01    5.2255525768E-01    5.1784130741E-01    5.1061652652E-01
    5.0106801599E-01    4.8939158832E-01    4.7578974627E-01    4.6046957485E-01
    4.4364055954E-01    4.2551234395E-01    4.0629244057E-01    3.8618390821E-01
    3.6538313212E-01    3.4407778179E-01    3.2244289156E-01    3.0064331460E-01
    2.7883485469E-01    2.5716430669E-01    2.3576880028E-01    2.1477587394E-01