<UPF version="2.0.1">
  <PP_INFO>

 This pseudopotential file has been produced using the code
 ONCVPSP  (Optimized Norm-Conservinng Vanderbilt PSeudopotential)
 scalar-relativistic version 2.1.1, 03/26/2014 by D. R. Hamann
 The code is available through a link at URL www.mat-simresearch.com.
 Documentation with the package provides a full discription of the
 input data below.


 While it is not required under the terms of the GNU GPL, it is
 suggested that you cite D. R. Hamann, Phys. Rev. B 88, 085117 (2013)
 in any publication using these pseudopotentials.


 Copyright 2015 The Regents of the University of California
 
 This work is licensed under the Creative Commons Attribution-ShareAlike 
 4.0 International License. To view a copy of this license, visit 
 http://creativecommons.org/licenses/by-sa/4.0/ or send a letter to 
 Creative Commons, PO Box 1866, Mountain View, CA 94042, USA.
 
 This pseudopotential is part of the Schlipf-Gygi norm-conserving 
 pseudopotential library. Its construction parameters were tuned to 
 reproduce materials of a training set with very high accuracy and 
 should be suitable as a general purpose pseudopotential to treat a 
 variety of different compounds. For details of the construction and 
 testing of the pseudopotential please refer to:
 
 [insert reference to paper here]
 
 We kindly ask that you include this reference in all publications 
 associated to this pseudopotential.


    <PP_INPUTFILE>
# ATOM AND REFERENCE CONFIGURATION
# atsym  z    nc    nv    iexc   psfile
  Fe 26.00     3     4     4      upf
#
#   n    l    f        energy (Ha)
    1    0    2.00
    2    0    2.00
    2    1    6.00
    3    0    2.00
    3    1    6.00
    4    0    2.00
    3    2    6.00
#
# PSEUDOPOTENTIAL AND OPTIMIZATION
# lmax
    2
#
#   l,   rc,     ep,   ncon, nbas, qcut
    0   2.08667  -3.45509    5    8   6.68986
    1   2.11172  -2.20653    5    8   7.45338
    2   2.06193  -0.27580    5    8   8.55864
#
# LOCAL POTENTIAL
# lloc, lpopt,  rc(5),   dvloc0
    4    5   1.87426      0.00000
#
# VANDERBILT-KLEINMAN-BYLANDER PROJECTORs
# l, nproj, debl
    0    2   3.26061
    1    2   2.97009
    2    2   1.24375
#
# MODEL CORE CHARGE
# icmod, fcfact
    0   0.00000
#
# LOG DERIVATIVE ANALYSIS
# epsh1, epsh2, depsh
   -5.00    3.00    0.02
#
# OUTPUT GRID
# rlmax, drl
    6.00    0.01
#
# TEST CONFIGURATIONS
# ncnf
    0
# nvcnf
#   n    l    f
    </PP_INPUTFILE>
  </PP_INFO>
  <!--                               -->
  <!-- END OF HUMAN READABLE SECTION -->
  <!--                               -->
    <PP_HEADER
       generated="Generated using ONCVPSP code by D. R. Hamann"
       author="Martin Schlipf and Francois Gygi"
       date="150105"
       comment=""
       element="Fe"
       pseudo_type="NC"
       relativistic="scalar"
       is_ultrasoft="F"
       is_paw="F"
       is_coulomb="F"
       has_so="F"
       has_wfc="F"
       has_gipaw="F"
       core_correction="F"
       functional="PBE"
       z_valence="   16.00"
       total_psenergy="  -1.18017023654E+02"
       rho_cutoff="   6.01000000000E+00"
       l_max="2"
       l_local="-1"
       mesh_size="   602"
       number_of_wfc="0"
       number_of_proj="6"/>
 <PP_MESH>
   <PP_R type="real"  size=" 602" columns="8">
    0.0000    0.0100    0.0200    0.0300    0.0400    0.0500    0.0600    0.0700
    0.0800    0.0900    0.1000    0.1100    0.1200    0.1300    0.1400    0.1500
    0.1600    0.1700    0.1800    0.1900    0.2000    0.2100    0.2200    0.2300
    0.2400    0.2500    0.2600    0.2700    0.2800    0.2900    0.3000    0.3100
    0.3200    0.3300    0.3400    0.3500    0.3600    0.3700    0.3800    0.3900
    0.4000    0.4100    0.4200    0.4300    0.4400    0.4500    0.4600    0.4700
    0.4800    0.4900    0.5000    0.5100    0.5200    0.5300    0.5400    0.5500
    0.5600    0.5700    0.5800    0.5900    0.6000    0.6100    0.6200    0.6300
    0.6400    0.6500    0.6600    0.6700    0.6800    0.6900    0.7000    0.7100
    0.7200    0.7300    0.7400    0.7500    0.7600    0.7700    0.7800    0.7900
    0.8000    0.8100    0.8200    0.8300    0.8400    0.8500    0.8600    0.8700
    0.8800    0.8900    0.9000    0.9100    0.9200    0.9300    0.9400    0.9500
    0.9600    0.9700    0.9800    0.9900    1.0000    1.0100    1.0200    1.0300
    1.0400    1.0500    1.0600    1.0700    1.0800    1.0900    1.1000    1.1100
    1.1200    1.1300    1.1400    1.1500    1.1600    1.1700    1.1800    1.1900
    1.2000    1.2100    1.2200    1.2300    1.2400    1.2500    1.2600    1.2700
    1.2800    1.2900    1.3000    1.3100    1.3200    1.3300    1.3400    1.3500
    1.3600    1.3700    1.3800    1.3900    1.4000    1.4100    1.4200    1.4300
    1.4400    1.4500    1.4600    1.4700    1.4800    1.4900    1.5000    1.5100
    1.5200    1.5300    1.5400    1.5500    1.5600    1.5700    1.5800    1.5900
    1.6000    1.6100    1.6200    1.6300    1.6400    1.6500    1.6600    1.6700
    1.6800    1.6900    1.7000    1.7100    1.7200    1.7300    1.7400    1.7500
    1.7600    1.7700    1.7800    1.7900    1.8000    1.8100    1.8200    1.8300
    1.8400    1.8500    1.8600    1.8700    1.8800    1.8900    1.9000    1.9100
    1.9200    1.9300    1.9400    1.9500    1.9600    1.9700    1.9800    1.9900
    2.0000    2.0100    2.0200    2.0300    2.0400    2.0500    2.0600    2.0700
    2.0800    2.0900    2.1000    2.1100    2.1200    2.1300    2.1400    2.1500
    2.1600    2.1700    2.1800    2.1900    2.2000    2.2100    2.2200    2.2300
    2.2400    2.2500    2.2600    2.2700    2.2800    2.2900    2.3000    2.3100
    2.3200    2.3300    2.3400    2.3500    2.3600    2.3700    2.3800    2.3900
    2.4000    2.4100    2.4200    2.4300    2.4400    2.4500    2.4600    2.4700
    2.4800    2.4900    2.5000    2.5100    2.5200    2.5300    2.5400    2.5500
    2.5600    2.5700    2.5800    2.5900    2.6000    2.6100    2.6200    2.6300
    2.6400    2.6500    2.6600    2.6700    2.6800    2.6900    2.7000    2.7100
    2.7200    2.7300    2.7400    2.7500    2.7600    2.7700    2.7800    2.7900
    2.8000    2.8100    2.8200    2.8300    2.8400    2.8500    2.8600    2.8700
    2.8800    2.8900    2.9000    2.9100    2.9200    2.9300    2.9400    2.9500
    2.9600    2.9700    2.9800    2.9900    3.0000    3.0100    3.0200    3.0300
    3.0400    3.0500    3.0600    3.0700    3.0800    3.0900    3.1000    3.1100
    3.1200    3.1300    3.1400    3.1500    3.1600    3.1700    3.1800    3.1900
    3.2000    3.2100    3.2200    3.2300    3.2400    3.2500    3.2600    3.2700
    3.2800    3.2900    3.3000    3.3100    3.3200    3.3300    3.3400    3.3500
    3.3600    3.3700    3.3800    3.3900    3.4000    3.4100    3.4200    3.4300
    3.4400    3.4500    3.4600    3.4700    3.4800    3.4900    3.5000    3.5100
    3.5200    3.5300    3.5400    3.5500    3.5600    3.5700    3.5800    3.5900
    3.6000    3.6100    3.6200    3.6300    3.6400    3.6500    3.6600    3.6700
    3.6800    3.6900    3.7000    3.7100    3.7200    3.7300    3.7400    3.7500
    3.7600    3.7700    3.7800    3.7900    3.8000    3.8100    3.8200    3.8300
    3.8400    3.8500    3.8600    3.8700    3.8800    3.8900    3.9000    3.9100
    3.9200    3.9300    3.9400    3.9500    3.9600    3.9700    3.9800    3.9900
    4.0000    4.0100    4.0200    4.0300    4.0400    4.0500    4.0600    4.0700
    4.0800    4.0900    4.1000    4.1100    4.1200    4.1300    4.1400    4.1500
    4.1600    4.1700    4.1800    4.1900    4.2000    4.2100    4.2200    4.2300
    4.2400    4.2500    4.2600    4.2700    4.2800    4.2900    4.3000    4.3100
    4.3200    4.3300    4.3400    4.3500    4.3600    4.3700    4.3800    4.3900
    4.4000    4.4100    4.4200    4.4300    4.4400    4.4500    4.4600    4.4700
    4.4800    4.4900    4.5000    4.5100    4.5200    4.5300    4.5400    4.5500
    4.5600    4.5700    4.5800    4.5900    4.6000    4.6100    4.6200    4.6300
    4.6400    4.6500    4.6600    4.6700    4.6800    4.6900    4.7000    4.7100
    4.7200    4.7300    4.7400    4.7500    4.7600    4.7700    4.7800    4.7900
    4.8000    4.8100    4.8200    4.8300    4.8400    4.8500    4.8600    4.8700
    4.8800    4.8900    4.9000    4.9100    4.9200    4.9300    4.9400    4.9500
    4.9600    4.9700    4.9800    4.9900    5.0000    5.0100    5.0200    5.0300
    5.0400    5.0500    5.0600    5.0700    5.0800    5.0900    5.1000    5.1100
    5.1200    5.1300    5.1400    5.1500    5.1600    5.1700    5.1800    5.1900
    5.2000    5.2100    5.2200    5.2300    5.2400    5.2500    5.2600    5.2700
    5.2800    5.2900    5.3000    5.3100    5.3200    5.3300    5.3400    5.3500
    5.3600    5.3700    5.3800    5.3900    5.4000    5.4100    5.4200    5.4300
    5.4400    5.4500    5.4600    5.4700    5.4800    5.4900    5.5000    5.5100
    5.5200    5.5300    5.5400    5.5500    5.5600    5.5700    5.5800    5.5900
    5.6000    5.6100    5.6200    5.6300    5.6400    5.6500    5.6600    5.6700
    5.6800    5.6900    5.7000    5.7100    5.7200    5.7300    5.7400    5.7500
    5.7600    5.7700    5.7800    5.7900    5.8000    5.8100    5.8200    5.8300
    5.8400    5.8500    5.8600    5.8700    5.8800    5.8900    5.9000    5.9100
    5.9200    5.9300    5.9400    5.9500    5.9600    5.9700    5.9800    5.9900
    6.0000    6.0100
   </PP_R>
   <PP_RAB type="real"  size=" 602" columns="8">
    0.0100    0.0100    0.0100    0.0100    0.0100    0.0100    0.0100    0.0100
    0.0100    0.0100    0.0100    0.0100    0.0100    0.0100    0.0100    0.0100
    0.0100    0.0100    0.0100    0.0100    0.0100    0.0100    0.0100    0.0100
    0.0100    0.0100    0.0100    0.0100    0.0100    0.0100    0.0100    0.0100
    0.0100    0.0100    0.0100    0.0100    0.0100    0.0100    0.0100    0.0100
    0.0100    0.0100    0.0100    0.0100    0.0100    0.0100    0.0100    0.0100
    0.0100    0.0100    0.0100    0.0100    0.0100    0.0100    0.0100    0.0100
    0.0100    0.0100    0.0100    0.0100    0.0100    0.0100    0.0100    0.0100
    0.0100    0.0100    0.0100    0.0100    0.0100    0.0100    0.0100    0.0100
    0.0100    0.0100    0.0100    0.0100    0.0100    0.0100    0.0100    0.0100
    0.0100    0.0100    0.0100    0.0100    0.0100    0.0100    0.0100    0.0100
    0.0100    0.0100    0.0100    0.0100    0.0100    0.0100    0.0100    0.0100
    0.0100    0.0100    0.0100    0.0100    0.0100    0.0100    0.0100    0.0100
    0.0100    0.0100    0.0100    0.0100    0.0100    0.0100    0.0100    0.0100
    0.0100    0.0100    0.0100    0.0100    0.0100    0.0100    0.0100    0.0100
    0.0100    0.0100    0.0100    0.0100    0.0100    0.0100    0.0100    0.0100
    0.0100    0.0100    0.0100    0.0100    0.0100    0.0100    0.0100    0.0100
    0.0100    0.0100    0.0100    0.0100    0.0100    0.0100    0.0100    0.0100
    0.0100    0.0100    0.0100    0.0100    0.0100    0.0100    0.0100    0.0100
    0.0100    0.0100    0.0100    0.0100    0.0100    0.0100    0.0100    0.0100
    0.0100    0.0100    0.0100    0.0100    0.0100    0.0100    0.0100    0.0100
    0.0100    0.0100    0.0100    0.0100    0.0100    0.0100    0.0100    0.0100
    0.0100    0.0100    0.0100    0.0100    0.0100    0.0100    0.0100    0.0100
    0.0100    0.0100    0.0100    0.0100    0.0100    0.0100    0.0100    0.0100
    0.0100    0.0100    0.0100    0.0100    0.0100    0.0100    0.0100    0.0100
    0.0100    0.0100    0.0100    0.0100    0.0100    0.0100    0.0100    0.0100
    0.0100    0.0100    0.0100    0.0100    0.0100    0.0100    0.0100    0.0100
    0.0100    0.0100    0.0100    0.0100    0.0100    0.0100    0.0100    0.0100
    0.0100    0.0100    0.0100    0.0100    0.0100    0.0100    0.0100    0.0100
    0.0100    0.0100    0.0100    0.0100    0.0100    0.0100    0.0100    0.0100
    0.0100    0.0100    0.0100    0.0100    0.0100    0.0100    0.0100    0.0100
    0.0100    0.0100    0.0100    0.0100    0.0100    0.0100    0.0100    0.0100
    0.0100    0.0100    0.0100    0.0100    0.0100    0.0100    0.0100    0.0100
    0.0100    0.0100    0.0100    0.0100    0.0100    0.0100    0.0100    0.0100
    0.0100    0.0100    0.0100    0.0100    0.0100    0.0100    0.0100    0.0100
    0.0100    0.0100    0.0100    0.0100    0.0100    0.0100    0.0100    0.0100
    0.0100    0.0100    0.0100    0.0100    0.0100    0.0100    0.0100    0.0100
    0.0100    0.0100    0.0100    0.0100    0.0100    0.0100    0.0100    0.0100
    0.0100    0.0100    0.0100    0.0100    0.0100    0.0100    0.0100    0.0100
    0.0100    0.0100    0.0100    0.0100    0.0100    0.0100    0.0100    0.0100
    0.0100    0.0100    0.0100    0.0100    0.0100    0.0100    0.0100    0.0100
    0.0100    0.0100    0.0100    0.0100    0.0100    0.0100    0.0100    0.0100
    0.0100    0.0100    0.0100    0.0100    0.0100    0.0100    0.0100    0.0100
    0.0100    0.0100    0.0100    0.0100    0.0100    0.0100    0.0100    0.0100
    0.0100    0.0100    0.0100    0.0100    0.0100    0.0100    0.0100    0.0100
    0.0100    0.0100    0.0100    0.0100    0.0100    0.0100    0.0100    0.0100
    0.0100    0.0100    0.0100    0.0100    0.0100    0.0100    0.0100    0.0100
    0.0100    0.0100    0.0100    0.0100    0.0100    0.0100    0.0100    0.0100
    0.0100    0.0100    0.0100    0.0100    0.0100    0.0100    0.0100    0.0100
    0.0100    0.0100    0.0100    0.0100    0.0100    0.0100    0.0100    0.0100
    0.0100    0.0100    0.0100    0.0100    0.0100    0.0100    0.0100    0.0100
    0.0100    0.0100    0.0100    0.0100    0.0100    0.0100    0.0100    0.0100
    0.0100    0.0100    0.0100    0.0100    0.0100    0.0100    0.0100    0.0100
    0.0100    0.0100    0.0100    0.0100    0.0100    0.0100    0.0100    0.0100
    0.0100    0.0100    0.0100    0.0100    0.0100    0.0100    0.0100    0.0100
    0.0100    0.0100    0.0100    0.0100    0.0100    0.0100    0.0100    0.0100
    0.0100    0.0100    0.0100    0.0100    0.0100    0.0100    0.0100    0.0100
    0.0100    0.0100    0.0100    0.0100    0.0100    0.0100    0.0100    0.0100
    0.0100    0.0100    0.0100    0.0100    0.0100    0.0100    0.0100    0.0100
    0.0100    0.0100    0.0100    0.0100    0.0100    0.0100    0.0100    0.0100
    0.0100    0.0100    0.0100    0.0100    0.0100    0.0100    0.0100    0.0100
    0.0100    0.0100    0.0100    0.0100    0.0100    0.0100    0.0100    0.0100
    0.0100    0.0100    0.0100    0.0100    0.0100    0.0100    0.0100    0.0100
    0.0100    0.0100    0.0100    0.0100    0.0100    0.0100    0.0100    0.0100
    0.0100    0.0100    0.0100    0.0100    0.0100    0.0100    0.0100    0.0100
    0.0100    0.0100    0.0100    0.0100    0.0100    0.0100    0.0100    0.0100
    0.0100    0.0100    0.0100    0.0100    0.0100    0.0100    0.0100    0.0100
    0.0100    0.0100    0.0100    0.0100    0.0100    0.0100    0.0100    0.0100
    0.0100    0.0100    0.0100    0.0100    0.0100    0.0100    0.0100    0.0100
    0.0100    0.0100    0.0100    0.0100    0.0100    0.0100    0.0100    0.0100
    0.0100    0.0100    0.0100    0.0100    0.0100    0.0100    0.0100    0.0100
    0.0100    0.0100    0.0100    0.0100    0.0100    0.0100    0.0100    0.0100
    0.0100    0.0100    0.0100    0.0100    0.0100    0.0100    0.0100    0.0100
    0.0100    0.0100    0.0100    0.0100    0.0100    0.0100    0.0100    0.0100
    0.0100    0.0100    0.0100    0.0100    0.0100    0.0100    0.0100    0.0100
    0.0100    0.0100
   </PP_RAB>
 </PP_MESH>
  <PP_LOCAL type="real"  size=" 602" columns="4">
   -4.1198024945E+01   -4.1197713854E+01   -4.1197094345E+01   -4.1195780034E+01
   -4.1193384535E+01   -4.1189432138E+01   -4.1183408009E+01   -4.1174806003E+01
   -4.1163167885E+01   -4.1148110509E+01   -4.1129340261E+01   -4.1106656214E+01
   -4.1079944657E+01   -4.1049168039E+01   -4.1014351092E+01   -4.0975566331E+01
   -4.0932920430E+01   -4.0886542329E+01   -4.0836573460E+01   -4.0783160114E+01
   -4.0726447765E+01   -4.0666577068E+01   -4.0603681213E+01   -4.0537884316E+01
   -4.0469300601E+01   -4.0398034110E+01   -4.0324178798E+01   -4.0247818845E+01
   -4.0169029105E+01   -4.0087875604E+01   -4.0004416042E+01   -3.9918700268E+01
   -3.9830770710E+01   -3.9740662742E+01   -3.9648404982E+01   -3.9554019570E+01
   -3.9457522332E+01   -3.9358922959E+01   -3.9258225143E+01   -3.9155426660E+01
   -3.9050519516E+01   -3.8943490078E+01   -3.8834319253E+01   -3.8722982740E+01
   -3.8609451355E+01   -3.8493691466E+01   -3.8375665554E+01   -3.8255332907E+01
   -3.8132650461E+01   -3.8007573771E+01   -3.7880058164E+01   -3.7750059979E+01
   -3.7617537907E+01   -3.7482454490E+01   -3.7344777435E+01   -3.7204481219E+01
   -3.7061548279E+01   -3.6915970358E+01   -3.6767749450E+01   -3.6616898767E+01
   -3.6463443002E+01   -3.6307419102E+01   -3.6148875591E+01   -3.5987872875E+01
   -3.5824482347E+01   -3.5658785404E+01   -3.5490872855E+01   -3.5320843460E+01
   -3.5148802650E+01   -3.4974861221E+01   -3.4799134200E+01   -3.4621739340E+01
   -3.4442796009E+01   -3.4262424107E+01   -3.4080743119E+01   -3.3897871259E+01
   -3.3713924783E+01   -3.3529017459E+01   -3.3343260140E+01   -3.3156760451E+01
   -3.2969622590E+01   -3.2781947191E+01   -3.2593831281E+01   -3.2405368268E+01
   -3.2216647981E+01   -3.2027756730E+01   -3.1838777390E+01   -3.1649789477E+01
   -3.1460869242E+01   -3.1272089742E+01   -3.1083520915E+01   -3.0895229635E+01
   -3.0707279760E+01   -3.0519732161E+01   -3.0332644739E+01   -3.0146072440E+01
   -2.9960067318E+01   -2.9774678349E+01   -2.9589951509E+01   -2.9405929787E+01
   -2.9222653135E+01   -2.9040158448E+01   -2.8858479556E+01   -2.8677647404E+01
   -2.8497689445E+01   -2.8318630238E+01   -2.8140491301E+01   -2.7963291167E+01
   -2.7787045706E+01   -2.7611767375E+01   -2.7437466129E+01   -2.7264149346E+01
   -2.7091822154E+01   -2.6920487073E+01   -2.6750144565E+01   -2.6580793403E+01
   -2.6412430924E+01   -2.6245052788E+01   -2.6078653802E+01   -2.5913228118E+01
   -2.5748769342E+01   -2.5585270978E+01   -2.5422726792E+01   -2.5261130711E+01
   -2.5100477738E+01   -2.4940763775E+01   -2.4781985432E+01   -2.4624141321E+01
   -2.4467231399E+01   -2.4311256554E+01   -2.4156220364E+01   -2.4002127636E+01
   -2.3848984278E+01   -2.3696798963E+01   -2.3545581009E+01   -2.3395341245E+01
   -2.3246092184E+01   -2.3097846677E+01   -2.2950619000E+01   -2.2804423695E+01
   -2.2659275743E+01   -2.2515190239E+01   -2.2372182177E+01   -2.2230266174E+01
   -2.2089456036E+01   -2.1949765386E+01   -2.1811205743E+01   -2.1673788885E+01
   -2.1537523761E+01   -2.1402418992E+01   -2.1268481209E+01   -2.1135715228E+01
   -2.1004125250E+01   -2.0873712293E+01   -2.0744478094E+01   -2.0616420519E+01
   -2.0489538451E+01   -2.0363827854E+01   -2.0239285130E+01   -2.0115905006E+01
   -1.9993682321E+01   -1.9872611164E+01   -1.9752685817E+01   -1.9633900334E+01
   -1.9516249300E+01   -1.9399727286E+01   -1.9284329760E+01   -1.9170052228E+01
   -1.9056891276E+01   -1.8944843558E+01   -1.8833906678E+01   -1.8724078393E+01
   -1.8615356974E+01   -1.8507740953E+01   -1.8401228790E+01   -1.8295819198E+01
   -1.8191510350E+01   -1.8088300342E+01   -1.7986186673E+01   -1.7885165937E+01
   -1.7785234689E+01   -1.7686387178E+01   -1.7588618845E+01   -1.7491920944E+01
   -1.7396287625E+01   -1.7301707232E+01   -1.7208171167E+01   -1.7115666202E+01
   -1.7024180016E+01   -1.6933698630E+01   -1.6844207075E+01   -1.6755690699E+01
   -1.6668133494E+01   -1.6581520252E+01   -1.6495834515E+01   -1.6411060277E+01
   -1.6327181303E+01   -1.6244181223E+01   -1.6162043903E+01   -1.6080753555E+01
   -1.6000293779E+01   -1.5920650013E+01   -1.5841806414E+01   -1.5763748970E+01
   -1.5686463737E+01   -1.5609936505E+01   -1.5534155896E+01   -1.5459108384E+01
   -1.5384783624E+01   -1.5311170755E+01   -1.5238258939E+01   -1.5166038761E+01
   -1.5094499913E+01   -1.5023633018E+01   -1.4953428406E+01   -1.4883876460E+01
   -1.4814968653E+01   -1.4746695742E+01   -1.4679049236E+01   -1.4612020633E+01
   -1.4545601149E+01   -1.4479782936E+01   -1.4414557591E+01   -1.4349917140E+01
   -1.4285854015E+01   -1.4222360102E+01   -1.4159428184E+01   -1.4097050829E+01
   -1.4035220413E+01   -1.3973930176E+01   -1.3913172862E+01   -1.3852941487E+01
   -1.3793229523E+01   -1.3734029961E+01   -1.3675336396E+01   -1.3617142518E+01
   -1.3559441575E+01   -1.3502227673E+01   -1.3445494687E+01   -1.3389236214E+01
   -1.3333446719E+01   -1.3278120271E+01   -1.3223250887E+01   -1.3168833260E+01
   -1.3114861694E+01   -1.3061330582E+01   -1.3008234836E+01   -1.2955568998E+01
   -1.2903327785E+01   -1.2851506332E+01   -1.2800099416E+01   -1.2749102035E+01
   -1.2698509542E+01   -1.2648316953E+01   -1.2598519502E+01   -1.2549112762E+01
   -1.2500091986E+01   -1.2451452605E+01   -1.2403190412E+01   -1.2355300897E+01
   -1.2307779652E+01   -1.2260622686E+01   -1.2213825731E+01   -1.2167384500E+01
   -1.2121295222E+01   -1.2075553869E+01   -1.2030156246E+01   -1.1985098798E+01
   -1.1940377716E+01   -1.1895988935E+01   -1.1851929046E+01   -1.1808194440E+01
   -1.1764781285E+01   -1.1721686186E+01   -1.1678905766E+01   -1.1636436433E+01
   -1.1594274777E+01   -1.1552417647E+01   -1.1510861698E+01   -1.1469603480E+01
   -1.1428640065E+01   -1.1387968308E+01   -1.1347584846E+01   -1.1307486821E+01
   -1.1267671281E+01   -1.1228135104E+01   -1.1188875332E+01   -1.1149889246E+01
   -1.1111173975E+01   -1.1072726442E+01   -1.1034544153E+01   -1.0996624380E+01
   -1.0958964250E+01   -1.0921561151E+01   -1.0884412588E+01   -1.0847515937E+01
   -1.0810868421E+01   -1.0774467770E+01   -1.0738311507E+01   -1.0702397022E+01
   -1.0666721922E+01   -1.0631283951E+01   -1.0596080745E+01   -1.0561109728E+01
   -1.0526368849E+01   -1.0491855861E+01   -1.0457568433E+01   -1.0423504278E+01
   -1.0389661396E+01   -1.0356037638E+01   -1.0322630707E+01   -1.0289438598E+01
   -1.0256459336E+01   -1.0223690873E+01   -1.0191130959E+01   -1.0158777832E+01
   -1.0126629545E+01   -1.0094684101E+01   -1.0062939448E+01   -1.0031393886E+01
   -1.0000045555E+01   -9.9688925067E+00   -9.9379328777E+00   -9.9071650151E+00
   -9.8765871440E+00   -9.8461973761E+00   -9.8159940056E+00   -9.7859754299E+00
   -9.7561399568E+00   -9.7264857634E+00   -9.6970112732E+00   -9.6677149395E+00
   -9.6385951489E+00   -9.6096501497E+00   -9.5808784671E+00   -9.5522786166E+00
   -9.5238490599E+00   -9.4955881213E+00   -9.4674944025E+00   -9.4395664868E+00
   -9.4118029077E+00   -9.3842020703E+00   -9.3567626286E+00   -9.3294832397E+00
   -9.3023625054E+00   -9.2753989161E+00   -9.2485911558E+00   -9.2219379604E+00
   -9.1954379968E+00   -9.1690898457E+00   -9.1428921999E+00   -9.1168438785E+00
   -9.0909436107E+00   -9.0651900722E+00   -9.0395819450E+00   -9.0141181353E+00
   -8.9887974312E+00   -8.9636186086E+00   -8.9385803216E+00   -8.9136815651E+00
   -8.8889211839E+00   -8.8642980229E+00   -8.8398107993E+00   -8.8154584923E+00
   -8.7912400356E+00   -8.7671543275E+00   -8.7432001933E+00   -8.7193765409E+00
   -8.6956824070E+00   -8.6721167417E+00   -8.6486784838E+00   -8.6253664561E+00
   -8.6021797984E+00   -8.5791175095E+00   -8.5561785884E+00   -8.5333619379E+00
   -8.5106666247E+00   -8.4880917513E+00   -8.4656363631E+00   -8.4432994848E+00
   -8.4210800627E+00   -8.3989773124E+00   -8.3769903238E+00   -8.3551181870E+00
   -8.3333599058E+00   -8.3117146210E+00   -8.2901815248E+00   -8.2687597496E+00
   -8.2474484278E+00   -8.2262465550E+00   -8.2051534385E+00   -8.1841682526E+00
   -8.1632901699E+00   -8.1425183164E+00   -8.1218518324E+00   -8.1012900211E+00
   -8.0808320938E+00   -8.0604772619E+00   -8.0402246525E+00   -8.0200735319E+00
   -8.0000231999E+00   -7.9800729047E+00   -7.9602218942E+00   -7.9404693053E+00
   -7.9208145073E+00   -7.9012568029E+00   -7.8817954753E+00   -7.8624298038E+00
   -7.8431589537E+00   -7.8239823637E+00   -7.8048993502E+00   -7.7859092299E+00
   -7.7670113008E+00   -7.7482047960E+00   -7.7294891700E+00   -7.7108637712E+00
   -7.6923279480E+00   -7.6738810234E+00   -7.6555222799E+00   -7.6372511932E+00
   -7.6190671421E+00   -7.6009695054E+00   -7.5829576373E+00   -7.5650308514E+00
   -7.5471886505E+00   -7.5294304422E+00   -7.5117556343E+00   -7.4941636178E+00
   -7.4766537211E+00   -7.4592254788E+00   -7.4418783263E+00   -7.4246116990E+00
   -7.4074250300E+00   -7.3903176468E+00   -7.3732891209E+00   -7.3563389140E+00
   -7.3394664877E+00   -7.3226713036E+00   -7.3059527309E+00   -7.2893103252E+00
   -7.2727435922E+00   -7.2562520185E+00   -7.2398350910E+00   -7.2234922317E+00
   -7.2072229600E+00   -7.1910268321E+00   -7.1749033585E+00   -7.1588520499E+00
   -7.1428723868E+00   -7.1269638393E+00   -7.1111260173E+00   -7.0953584543E+00
   -7.0796606838E+00   -7.0640322392E+00   -7.0484725605E+00   -7.0329812839E+00
   -7.0175579745E+00   -7.0022021875E+00   -6.9869134779E+00   -6.9716913529E+00
   -6.9565353708E+00   -6.9414451618E+00   -6.9264203017E+00   -6.9114603664E+00
   -6.8965649319E+00   -6.8817334794E+00   -6.8669656946E+00   -6.8522611768E+00
   -6.8376195215E+00   -6.8230403245E+00   -6.8085231422E+00   -6.7940675580E+00
   -6.7796732450E+00   -6.7653398175E+00   -6.7510668902E+00   -6.7368540775E+00
   -6.7227009217E+00   -6.7086071000E+00   -6.6945722678E+00   -6.6805960573E+00
   -6.6666781012E+00   -6.6528180262E+00   -6.6390153852E+00   -6.6252699138E+00
   -6.6115812613E+00   -6.5979490775E+00   -6.5843730118E+00   -6.5708526875E+00
   -6.5573877207E+00   -6.5439778415E+00   -6.5306227158E+00   -6.5173220096E+00
   -6.5040753887E+00   -6.4908824791E+00   -6.4777429443E+00   -6.4646565149E+00
   -6.4516228721E+00   -6.4386416975E+00   -6.4257126726E+00   -6.4128354322E+00
   -6.4000096719E+00   -6.3872351281E+00   -6.3745114973E+00   -6.3618384756E+00
   -6.3492157595E+00   -6.3366429981E+00   -6.3241199047E+00   -6.3116462274E+00
   -6.2992216768E+00   -6.2868459632E+00   -6.2745187971E+00   -6.2622398474E+00
   -6.2500088315E+00   -6.2378255145E+00   -6.2256896203E+00   -6.2136008729E+00
   -6.2015589962E+00   -6.1895636836E+00   -6.1776146441E+00   -6.1657116646E+00
   -6.1538544818E+00   -6.1420428327E+00   -6.1302764541E+00   -6.1185550686E+00
   -6.1068783649E+00   -6.0952461563E+00   -6.0836581917E+00   -6.0721142204E+00
   -6.0606139912E+00   -6.0491572535E+00   -6.0377436873E+00   -6.0263731134E+00
   -6.0150453000E+00   -6.0037600079E+00   -5.9925169979E+00   -5.9813160307E+00
   -5.9701568253E+00   -5.9590391567E+00   -5.9479628302E+00   -5.9369276178E+00
   -5.9259332915E+00   -5.9149796230E+00   -5.9040663749E+00   -5.8931932664E+00
   -5.8823601433E+00   -5.8715667881E+00   -5.8608129835E+00   -5.8500985118E+00
   -5.8394231557E+00   -5.8287866528E+00   -5.8181888097E+00   -5.8076294461E+00
   -5.7971083545E+00   -5.7866253276E+00   -5.7761801582E+00   -5.7657726356E+00
   -5.7554024902E+00   -5.7450695901E+00   -5.7347737376E+00   -5.7245147351E+00
   -5.7142923849E+00   -5.7041064893E+00   -5.6939568241E+00   -5.6838431796E+00
   -5.6737654093E+00   -5.6637233247E+00   -5.6537167374E+00   -5.6437454588E+00
   -5.6338093006E+00   -5.6239080310E+00   -5.6140414867E+00   -5.6042095115E+00
   -5.5944119259E+00   -5.5846485501E+00   -5.5749192045E+00   -5.5652237093E+00
   -5.5555618314E+00   -5.5459334399E+00   -5.5363383750E+00   -5.5267764652E+00
   -5.5172475395E+00   -5.5077514263E+00   -5.4982879544E+00   -5.4888568942E+00
   -5.4794581351E+00   -5.4700915185E+00   -5.4607568811E+00   -5.4514540597E+00
   -5.4421828908E+00   -5.4329432112E+00   -5.4237347996E+00   -5.4145575539E+00
   -5.4054113220E+00   -5.3962959482E+00   -5.3872112769E+00   -5.3781571523E+00
   -5.3691334186E+00   -5.3601398678E+00   -5.3511763947E+00   -5.3422428589E+00
   -5.3333391119E+00   -5.3244650053E+00
  </PP_LOCAL>
 <PP_NONLOCAL>
   <PP_BETA.1
       type="real"
       size=" 602"
       columns="4"
       index="1"
       angular_momentum="0"
       cutoff_radius_index=" 216"
       cutoff_radius="    2.1500000000E+00" >
    0.0000000000E+00    4.7602896530E-02    9.5144980836E-02    1.4256518351E-01
    1.8980192433E-01    2.3679286571E-01    2.8347467666E-01    3.2978281074E-01
    3.7565130112E-01    4.2101257602E-01    4.6579729734E-01    5.0993422537E-01
    5.5335011208E-01    5.9596962520E-01    6.3771530537E-01    6.7850755785E-01
    7.1826468053E-01    7.5690292918E-01    7.9433662101E-01    8.3047827693E-01
    8.6523880264E-01    8.9852770872E-01    9.3025336876E-01    9.6032331512E-01
    9.8864457056E-01    1.0151240157E+00    1.0396687875E+00    1.0621867111E+00
    1.0825867575E+00    1.1007795281E+00    1.1166777622E+00    1.1301968633E+00
    1.1412554389E+00    1.1497758583E+00    1.1556848155E+00    1.1589138878E+00
    1.1594001165E+00    1.1570865604E+00    1.1519228429E+00    1.1438657158E+00
    1.1328795647E+00    1.1189369176E+00    1.1020189221E+00    1.0821157933E+00
    1.0592272273E+00    1.0333627768E+00    1.0045421850E+00    9.7279567433E-01
    9.3816417393E-01    9.0069954329E-01    8.6046468333E-01    8.1753360568E-01
    7.7199146513E-01    7.2393454876E-01    6.7347010793E-01    6.2071627086E-01
    5.6580175701E-01    5.0886562488E-01    4.5005689937E-01    3.8953417110E-01
    3.2746511842E-01    2.6402595692E-01    1.9940089514E-01    1.3378142358E-01
    6.7365642838E-02    3.5759057511E-04   -6.7033697030E-02   -1.3459494351E-01
   -2.0210947881E-01   -2.6935806497E-01   -3.3612014055E-01   -4.0217448785E-01
   -4.6730029143E-01   -5.3127812891E-01   -5.9389088459E-01   -6.5492496418E-01
   -7.1417117114E-01   -7.7142564139E-01   -8.2649085408E-01   -8.7917658161E-01
   -9.2930081274E-01   -9.7669064335E-01   -1.0211831294E+00   -1.0626260966E+00
   -1.1008789026E+00   -1.1358131463E+00   -1.1673133192E+00   -1.1952773971E+00
   -1.2196173646E+00   -1.2402596727E+00   -1.2571456229E+00   -1.2702316776E+00
   -1.2794896932E+00   -1.2849070741E+00   -1.2864868465E+00   -1.2842476514E+00