<UPF version="2.0.1">
  <PP_INFO>

 This pseudopotential file has been produced using the code
 ONCVPSP  (Optimized Norm-Conservinng Vanderbilt PSeudopotential)
 fully-relativistic version 2.1.1, 03/26/2014 by D. R. Hamann
 The code is available through a link at URL www.mat-simresearch.com.
 Documentation with the package provides a full discription of the
 input data below.


 While it is not required under the terms of the GNU GPL, it is
 suggested that you cite D. R. Hamann, Phys. Rev. B 88, 085117 (2013)
 in any publication using these pseudopotentials.


 Copyright 2015 The Regents of the University of California
 
 This work is licensed under the Creative Commons Attribution-ShareAlike 
 4.0 International License. To view a copy of this license, visit 
 http://creativecommons.org/licenses/by-sa/4.0/ or send a letter to 
 Creative Commons, PO Box 1866, Mountain View, CA 94042, USA.
 
 This pseudopotential is part of the Schlipf-Gygi norm-conserving 
 pseudopotential library. Its construction parameters were tuned to 
 reproduce materials of a training set with very high accuracy and 
 should be suitable as a general purpose pseudopotential to treat a 
 variety of different compounds. For details of the construction and 
 testing of the pseudopotential please refer to:
 
 [insert reference to paper here]
 
 We kindly ask that you include this reference in all publications 
 associated to this pseudopotential.


    <PP_INPUTFILE>
# ATOM AND REFERENCE CONFIGURATION
# atsym  z    nc    nv    iexc   psfile
  Ga 31.00     5     3     4      upf
#
#   n    l    f        energy (Ha)
    1    0    2.00
    2    0    2.00
    2    1    6.00
    3    0    2.00
    3    1    6.00
    3    2   10.00
    4    0    2.00
    4    1    1.00
#
# PSEUDOPOTENTIAL AND OPTIMIZATION
# lmax
    2
#
#   l,   rc,     ep,   ncon, nbas, qcut
    0     2.33023    -0.32881    5    8     4.71712
    1     2.44411    -0.09340    5    8     4.59134
    2     1.97184    -0.69700    5    8     7.53761
#
# LOCAL POTENTIAL
# lloc, lpopt,  rc(5),   dvloc0
    4    5     1.87996        0.00000
#
# VANDERBILT-KLEINMAN-BYLANDER PROJECTORs
# l, nproj, debl
    0    2     1.31404
    1    2     1.17501
    2    2     0.78761
#
# MODEL CORE CHARGE
# icmod, fcfact
    0     0.00000
#
# LOG DERIVATIVE ANALYSIS
# epsh1, epsh2, depsh
   -5.00    3.00    0.02
#
# OUTPUT GRID
# rlmax, drl
    6.00    0.01
#
# TEST CONFIGURATIONS
# ncnf
    0
# nvcnf
#   n    l    f
    </PP_INPUTFILE>
  </PP_INFO>
  <!--                               -->
  <!-- END OF HUMAN READABLE SECTION -->
  <!--                               -->
    <PP_HEADER
       generated="Generated using ONCVPSP code by D. R. Hamann"
       author="Martin Schlipf and Francois Gygi"
       date="180402"
       comment=""
       element="Ga"
       pseudo_type="NC"
       relativistic="full"
       is_ultrasoft="F"
       is_paw="F"
       is_coulomb="F"
       has_so="T"
       has_wfc="F"
       has_gipaw="F"
       core_correction="F"
       functional="PBE"
       z_valence="   13.00"
       total_psenergy="  -6.55375584345E+01"
       rho_cutoff="   6.01000000000E+00"
       l_max="2"
       l_local="-1"
       mesh_size="   602"
       number_of_wfc="0"
       number_of_proj="10"/>
 <PP_MESH>
   <PP_R type="real"  size=" 602" columns="8">
    0.0000    0.0100    0.0200    0.0300    0.0400    0.0500    0.0600    0.0700
    0.0800    0.0900    0.1000    0.1100    0.1200    0.1300    0.1400    0.1500
    0.1600    0.1700    0.1800    0.1900    0.2000    0.2100    0.2200    0.2300
    0.2400    0.2500    0.2600    0.2700    0.2800    0.2900    0.3000    0.3100
    0.3200    0.3300    0.3400    0.3500    0.3600    0.3700    0.3800    0.3900
    0.4000    0.4100    0.4200    0.4300    0.4400    0.4500    0.4600    0.4700
    0.4800    0.4900    0.5000    0.5100    0.5200    0.5300    0.5400    0.5500
    0.5600    0.5700    0.5800    0.5900    0.6000    0.6100    0.6200    0.6300
    0.6400    0.6500    0.6600    0.6700    0.6800    0.6900    0.7000    0.7100
    0.7200    0.7300    0.7400    0.7500    0.7600    0.7700    0.7800    0.7900
    0.8000    0.8100    0.8200    0.8300    0.8400    0.8500    0.8600    0.8700
    0.8800    0.8900    0.9000    0.9100    0.9200    0.9300    0.9400    0.9500
    0.9600    0.9700    0.9800    0.9900    1.0000    1.0100    1.0200    1.0300
    1.0400    1.0500    1.0600    1.0700    1.0800    1.0900    1.1000    1.1100
    1.1200    1.1300    1.1400    1.1500    1.1600    1.1700    1.1800    1.1900
    1.2000    1.2100    1.2200    1.2300    1.2400    1.2500    1.2600    1.2700
    1.2800    1.2900    1.3000    1.3100    1.3200    1.3300    1.3400    1.3500
    1.3600    1.3700    1.3800    1.3900    1.4000    1.4100    1.4200    1.4300
    1.4400    1.4500    1.4600    1.4700    1.4800    1.4900    1.5000    1.5100
    1.5200    1.5300    1.5400    1.5500    1.5600    1.5700    1.5800    1.5900
    1.6000    1.6100    1.6200    1.6300    1.6400    1.6500    1.6600    1.6700
    1.6800    1.6900    1.7000    1.7100    1.7200    1.7300    1.7400    1.7500
    1.7600    1.7700    1.7800    1.7900    1.8000    1.8100    1.8200    1.8300
    1.8400    1.8500    1.8600    1.8700    1.8800    1.8900    1.9000    1.9100
    1.9200    1.9300    1.9400    1.9500    1.9600    1.9700    1.9800    1.9900
    2.0000    2.0100    2.0200    2.0300    2.0400    2.0500    2.0600    2.0700
    2.0800    2.0900    2.1000    2.1100    2.1200    2.1300    2.1400    2.1500
    2.1600    2.1700    2.1800    2.1900    2.2000    2.2100    2.2200    2.2300
    2.2400    2.2500    2.2600    2.2700    2.2800    2.2900    2.3000    2.3100
    2.3200    2.3300    2.3400    2.3500    2.3600    2.3700    2.3800    2.3900
    2.4000    2.4100    2.4200    2.4300    2.4400    2.4500    2.4600    2.4700
    2.4800    2.4900    2.5000    2.5100    2.5200    2.5300    2.5400    2.5500
    2.5600    2.5700    2.5800    2.5900    2.6000    2.6100    2.6200    2.6300
    2.6400    2.6500    2.6600    2.6700    2.6800    2.6900    2.7000    2.7100
    2.7200    2.7300    2.7400    2.7500    2.7600    2.7700    2.7800    2.7900
    2.8000    2.8100    2.8200    2.8300    2.8400    2.8500    2.8600    2.8700
    2.8800    2.8900    2.9000    2.9100    2.9200    2.9300    2.9400    2.9500
    2.9600    2.9700    2.9800    2.9900    3.0000    3.0100    3.0200    3.0300
    3.0400    3.0500    3.0600    3.0700    3.0800    3.0900    3.1000    3.1100
    3.1200    3.1300    3.1400    3.1500    3.1600    3.1700    3.1800    3.1900
    3.2000    3.2100    3.2200    3.2300    3.2400    3.2500    3.2600    3.2700
    3.2800    3.2900    3.3000    3.3100    3.3200    3.3300    3.3400    3.3500
    3.3600    3.3700    3.3800    3.3900    3.4000    3.4100    3.4200    3.4300
    3.4400    3.4500    3.4600    3.4700    3.4800    3.4900    3.5000    3.5100
    3.5200    3.5300    3.5400    3.5500    3.5600    3.5700    3.5800    3.5900
    3.6000    3.6100    3.6200    3.6300    3.6400    3.6500    3.6600    3.6700
    3.6800    3.6900    3.7000    3.7100    3.7200    3.7300    3.7400    3.7500
    3.7600    3.7700    3.7800    3.7900    3.8000    3.8100    3.8200    3.8300
    3.8400    3.8500    3.8600    3.8700    3.8800    3.8900    3.9000    3.9100
    3.9200    3.9300    3.9400    3.9500    3.9600    3.9700    3.9800    3.9900
    4.0000    4.0100    4.0200    4.0300    4.0400    4.0500    4.0600    4.0700
    4.0800    4.0900    4.1000    4.1100    4.1200    4.1300    4.1400    4.1500
    4.1600    4.1700    4.1800    4.1900    4.2000    4.2100    4.2200    4.2300
    4.2400    4.2500    4.2600    4.2700    4.2800    4.2900    4.3000    4.3100
    4.3200    4.3300    4.3400    4.3500    4.3600    4.3700    4.3800    4.3900
    4.4000    4.4100    4.4200    4.4300    4.4400    4.4500    4.4600    4.4700
    4.4800    4.4900    4.5000    4.5100    4.5200    4.5300    4.5400    4.5500
    4.5600    4.5700    4.5800    4.5900    4.6000    4.6100    4.6200    4.6300
    4.6400    4.6500    4.6600    4.6700    4.6800    4.6900    4.7000    4.7100
    4.7200    4.7300    4.7400    4.7500    4.7600    4.7700    4.7800    4.7900
    4.8000    4.8100    4.8200    4.8300    4.8400    4.8500    4.8600    4.8700
    4.8800    4.8900    4.9000    4.9100    4.9200    4.9300    4.9400    4.9500
    4.9600    4.9700    4.9800    4.9900    5.0000    5.0100    5.0200    5.0300
    5.0400    5.0500    5.0600    5.0700    5.0800    5.0900    5.1000    5.1100
    5.1200    5.1300    5.1400    5.1500    5.1600    5.1700    5.1800    5.1900
    5.2000    5.2100    5.2200    5.2300    5.2400    5.2500    5.2600    5.2700
    5.2800    5.2900    5.3000    5.3100    5.3200    5.3300    5.3400    5.3500
    5.3600    5.3700    5.3800    5.3900    5.4000    5.4100    5.4200    5.4300
    5.4400    5.4500    5.4600    5.4700    5.4800    5.4900    5.5000    5.5100
    5.5200    5.5300    5.5400    5.5500    5.5600    5.5700    5.5800    5.5900
    5.6000    5.6100    5.6200    5.6300    5.6400    5.6500    5.6600    5.6700
    5.6800    5.6900    5.7000    5.7100    5.7200    5.7300    5.7400    5.7500
    5.7600    5.7700    5.7800    5.7900    5.8000    5.8100    5.8200    5.8300
    5.8400    5.8500    5.8600    5.8700    5.8800    5.8900    5.9000    5.9100
    5.9200    5.9300    5.9400    5.9500    5.9600    5.9700    5.9800    5.9900
    6.0000    6.0100
   </PP_R>
   <PP_RAB type="real"  size=" 602" columns="8">
    0.0100    0.0100    0.0100    0.0100    0.0100    0.0100    0.0100    0.0100
    0.0100    0.0100    0.0100    0.0100    0.0100    0.0100    0.0100    0.0100
    0.0100    0.0100    0.0100    0.0100    0.0100    0.0100    0.0100    0.0100
    0.0100    0.0100    0.0100    0.0100    0.0100    0.0100    0.0100    0.0100
    0.0100    0.0100    0.0100    0.0100    0.0100    0.0100    0.0100    0.0100
    0.0100    0.0100    0.0100    0.0100    0.0100    0.0100    0.0100    0.0100
    0.0100    0.0100    0.0100    0.0100    0.0100    0.0100    0.0100    0.0100
    0.0100    0.0100    0.0100    0.0100    0.0100    0.0100    0.0100    0.0100
    0.0100    0.0100    0.0100    0.0100    0.0100    0.0100    0.0100    0.0100
    0.0100    0.0100    0.0100    0.0100    0.0100    0.0100    0.0100    0.0100
    0.0100    0.0100    0.0100    0.0100    0.0100    0.0100    0.0100    0.0100
    0.0100    0.0100    0.0100    0.0100    0.0100    0.0100    0.0100    0.0100
    0.0100    0.0100    0.0100    0.0100    0.0100    0.0100    0.0100    0.0100
    0.0100    0.0100    0.0100    0.0100    0.0100    0.0100    0.0100    0.0100
    0.0100    0.0100    0.0100    0.0100    0.0100    0.0100    0.0100    0.0100
    0.0100    0.0100    0.0100    0.0100    0.0100    0.0100    0.0100    0.0100
    0.0100    0.0100    0.0100    0.0100    0.0100    0.0100    0.0100    0.0100
    0.0100    0.0100    0.0100    0.0100    0.0100    0.0100    0.0100    0.0100
    0.0100    0.0100    0.0100    0.0100    0.0100    0.0100    0.0100    0.0100
    0.0100    0.0100    0.0100    0.0100    0.0100    0.0100    0.0100    0.0100
    0.0100    0.0100    0.0100    0.0100    0.0100    0.0100    0.0100    0.0100
    0.0100    0.0100    0.0100    0.0100    0.0100    0.0100    0.0100    0.0100
    0.0100    0.0100    0.0100    0.0100    0.0100    0.0100    0.0100    0.0100
    0.0100    0.0100    0.0100    0.0100    0.0100    0.0100    0.0100    0.0100
    0.0100    0.0100    0.0100    0.0100    0.0100    0.0100    0.0100    0.0100
    0.0100    0.0100    0.0100    0.0100    0.0100    0.0100    0.0100    0.0100
    0.0100    0.0100    0.0100    0.0100    0.0100    0.0100    0.0100    0.0100
    0.0100    0.0100    0.0100    0.0100    0.0100    0.0100    0.0100    0.0100
    0.0100    0.0100    0.0100    0.0100    0.0100    0.0100    0.0100    0.0100
    0.0100    0.0100    0.0100    0.0100    0.0100    0.0100    0.0100    0.0100
    0.0100    0.0100    0.0100    0.0100    0.0100    0.0100    0.0100    0.0100
    0.0100    0.0100    0.0100    0.0100    0.0100    0.0100    0.0100    0.0100
    0.0100    0.0100    0.0100    0.0100    0.0100    0.0100    0.0100    0.0100
    0.0100    0.0100    0.0100    0.0100    0.0100    0.0100    0.0100    0.0100
    0.0100    0.0100    0.0100    0.0100    0.0100    0.0100    0.0100    0.0100
    0.0100    0.0100    0.0100    0.0100    0.0100    0.0100    0.0100    0.0100
    0.0100    0.0100    0.0100    0.0100    0.0100    0.0100    0.0100    0.0100
    0.0100    0.0100    0.0100    0.0100    0.0100    0.0100    0.0100    0.0100
    0.0100    0.0100    0.0100    0.0100    0.0100    0.0100    0.0100    0.0100
    0.0100    0.0100    0.0100    0.0100    0.0100    0.0100    0.0100    0.0100
    0.0100    0.0100    0.0100    0.0100    0.0100    0.0100    0.0100    0.0100
    0.0100    0.0100    0.0100    0.0100    0.0100    0.0100    0.0100    0.0100
    0.0100    0.0100    0.0100    0.0100    0.0100    0.0100    0.0100    0.0100
    0.0100    0.0100    0.0100    0.0100    0.0100    0.0100    0.0100    0.0100
    0.0100    0.0100    0.0100    0.0100    0.0100    0.0100    0.0100    0.0100
    0.0100    0.0100    0.0100    0.0100    0.0100    0.0100    0.0100    0.0100
    0.0100    0.0100    0.0100    0.0100    0.0100    0.0100    0.0100    0.0100
    0.0100    0.0100    0.0100    0.0100    0.0100    0.0100    0.0100    0.0100
    0.0100    0.0100    0.0100    0.0100    0.0100    0.0100    0.0100    0.0100
    0.0100    0.0100    0.0100    0.0100    0.0100    0.0100    0.0100    0.0100
    0.0100    0.0100    0.0100    0.0100    0.0100    0.0100    0.0100    0.0100
    0.0100    0.0100    0.0100    0.0100    0.0100    0.0100    0.0100    0.0100
    0.0100    0.0100    0.0100    0.0100    0.0100    0.0100    0.0100    0.0100
    0.0100    0.0100    0.0100    0.0100    0.0100    0.0100    0.0100    0.0100
    0.0100    0.0100    0.0100    0.0100    0.0100    0.0100    0.0100    0.0100
    0.0100    0.0100    0.0100    0.0100    0.0100    0.0100    0.0100    0.0100
    0.0100    0.0100    0.0100    0.0100    0.0100    0.0100    0.0100    0.0100
    0.0100    0.0100    0.0100    0.0100    0.0100    0.0100    0.0100    0.0100
    0.0100    0.0100    0.0100    0.0100    0.0100    0.0100    0.0100    0.0100
    0.0100    0.0100    0.0100    0.0100    0.0100    0.0100    0.0100    0.0100
    0.0100    0.0100    0.0100    0.0100    0.0100    0.0100    0.0100    0.0100
    0.0100    0.0100    0.0100    0.0100    0.0100    0.0100    0.0100    0.0100
    0.0100    0.0100    0.0100    0.0100    0.0100    0.0100    0.0100    0.0100
    0.0100    0.0100    0.0100    0.0100    0.0100    0.0100    0.0100    0.0100
    0.0100    0.0100    0.0100    0.0100    0.0100    0.0100    0.0100    0.0100
    0.0100    0.0100    0.0100    0.0100    0.0100    0.0100    0.0100    0.0100
    0.0100    0.0100    0.0100    0.0100    0.0100    0.0100    0.0100    0.0100
    0.0100    0.0100    0.0100    0.0100    0.0100    0.0100    0.0100    0.0100
    0.0100    0.0100    0.0100    0.0100    0.0100    0.0100    0.0100    0.0100
    0.0100    0.0100    0.0100    0.0100    0.0100    0.0100    0.0100    0.0100
    0.0100    0.0100    0.0100    0.0100    0.0100    0.0100    0.0100    0.0100
    0.0100    0.0100    0.0100    0.0100    0.0100    0.0100    0.0100    0.0100
    0.0100    0.0100    0.0100    0.0100    0.0100    0.0100    0.0100    0.0100
    0.0100    0.0100    0.0100    0.0100    0.0100    0.0100    0.0100    0.0100
    0.0100    0.0100    0.0100    0.0100    0.0100    0.0100    0.0100    0.0100
    0.0100    0.0100
   </PP_RAB>
 </PP_MESH>
  <PP_LOCAL type="real"  size=" 602" columns="4">
   -3.2478899085E+01   -3.2480267462E+01   -3.2452995570E+01   -3.2406604454E+01
   -3.2350615159E+01   -3.2288327535E+01   -3.2221111056E+01   -3.2149794924E+01
   -3.2075030938E+01   -3.1997426410E+01   -3.1917613110E+01   -3.1836293632E+01
   -3.1754277214E+01   -3.1672507902E+01   -3.1592084207E+01   -3.1514267260E+01
   -3.1440472942E+01   -3.1372242760E+01   -3.1311188003E+01   -3.1258903053E+01
   -3.1216846361E+01   -3.1186192164E+01   -3.1167662410E+01   -3.1161355910E+01
   -3.1166598130E+01   -3.1181839652E+01   -3.1204632808E+01   -3.1231704966E+01
   -3.1259139225E+01   -3.1282651499E+01   -3.1297935128E+01   -3.1301029572E+01
   -3.1288662905E+01   -3.1258523056E+01   -3.1209415022E+01   -3.1141301909E+01
   -3.1055213234E+01   -3.0953063257E+01   -3.0837389718E+01   -3.0711071090E+01
   -3.0577051793E+01   -3.0438110270E+01   -3.0296692954E+01   -3.0154819788E+01
   -3.0014056196E+01   -2.9875536836E+01   -2.9740022625E+01   -2.9607973342E+01
   -2.9479620138E+01   -2.9355033855E+01   -2.9234179040E+01   -2.9116955356E+01
   -2.9003226477E+01   -2.8892839432E+01   -2.8785634115E+01   -2.8681446291E+01
   -2.8580105336E+01   -2.8481426696E+01   -2.8385203105E+01   -2.8291190461E+01
   -2.8199097247E+01   -2.8108570193E+01   -2.8019185336E+01   -2.7930445198E+01
   -2.7841775741E+01   -2.7752540863E+01   -2.7662060042E+01   -2.7569635832E+01
   -2.7474590637E+01   -2.7376304967E+01   -2.7274253559E+01   -2.7168044660E+01
   -2.7057438672E+01   -2.6942358958E+01   -2.6822888705E+01   -2.6699254760E+01
   -2.6571801056E+01   -2.6440958153E+01   -2.6307207200E+01   -2.6171048196E+01
   -2.6032973120E+01   -2.5893445024E+01   -2.5752883854E+01   -2.5611658551E+01
   -2.5470084425E+01   -2.5328424550E+01   -2.5186893862E+01   -2.5045664861E+01
   -2.4904873968E+01   -2.4764627881E+01   -2.4625009480E+01   -2.4486083025E+01
   -2.4347898518E+01   -2.4210495231E+01   -2.4073904523E+01   -2.3938151472E+01
   -2.3803256686E+01   -2.3669236971E+01   -2.3536105739E+01   -2.3403873084E+01
   -2.3272545605E+01   -2.3142126193E+01   -2.3012613307E+01   -2.2884000252E+01
   -2.2756274905E+01   -2.2629419059E+01   -2.2503408081E+01   -2.2378210791E+01
   -2.2253787794E+01   -2.2130093074E+01   -2.2007073836E+01   -2.1884671387E+01
   -2.1762820476E+01   -2.1641451589E+01   -2.1520492428E+01   -2.1399868843E+01
   -2.1279506609E+01   -2.1159334290E+01   -2.1039284351E+01   -2.0919293718E+01
   -2.0799310153E+01   -2.0679290169E+01   -2.0559198371E+01   -2.0439015741E+01
   -2.0318735619E+01   -2.0198361050E+01   -2.0077912259E+01   -1.9957422723E+01
   -1.9836934028E+01   -1.9716503224E+01   -1.9596196747E+01   -1.9476086358E+01
   -1.9356254960E+01   -1.9236788129E+01   -1.9117774815E+01   -1.8999306220E+01
   -1.8881471600E+01   -1.8764359551E+01   -1.8648049613E+01   -1.8532620255E+01
   -1.8418134552E+01   -1.8304645750E+01   -1.8192199028E+01   -1.8080811289E+01
   -1.7970500118E+01   -1.7861247166E+01   -1.7753028138E+01   -1.7645797519E+01
   -1.7539489745E+01   -1.7434035008E+01   -1.7329341951E+01   -1.7225322037E+01
   -1.7121880695E+01   -1.7018928959E+01   -1.6916385109E+01   -1.6814184258E+01
   -1.6712269407E+01   -1.6610617773E+01   -1.6509205406E+01   -1.6408056412E+01
   -1.6307182982E+01   -1.6206647506E+01   -1.6106495732E+01   -1.6006811074E+01
   -1.5907665274E+01   -1.5809145026E+01   -1.5711333960E+01   -1.5614310886E+01
   -1.5518157828E+01   -1.5422937900E+01   -1.5328722356E+01   -1.5235554575E+01
   -1.5143490291E+01   -1.5052552452E+01   -1.4962779889E+01   -1.4874177012E+01
   -1.4786766054E+01   -1.4700537289E+01   -1.4615495652E+01   -1.4531623207E+01
   -1.4448909742E+01   -1.4367331836E+01   -1.4286867821E+01   -1.4207490659E+01
   -1.4129171199E+01   -1.4051879908E+01   -1.3975584060E+01   -1.3900252186E+01
   -1.3825851684E+01   -1.3752348978E+01   -1.3679715197E+01   -1.3607917694E+01
   -1.3536930912E+01   -1.3466727711E+01   -1.3397284239E+01   -1.3328581362E+01
   -1.3260596334E+01   -1.3193317420E+01   -1.3126726776E+01   -1.3060814097E+01
   -1.2995568129E+01   -1.2930977786E+01   -1.2867033160E+01   -1.2803723692E+01
   -1.2741039354E+01   -1.2678969449E+01   -1.2617504514E+01   -1.2556635425E+01
   -1.2496352644E+01   -1.2436647751E+01   -1.2377511568E+01   -1.2318935866E+01
   -1.2260912461E+01   -1.2203432896E+01   -1.2146489807E+01   -1.2090075136E+01
   -1.2034181552E+01   -1.1978801905E+01   -1.1923928589E+01   -1.1869555104E+01
   -1.1815674383E+01   -1.1762279699E+01   -1.1709364763E+01   -1.1656922786E+01
   -1.1604947757E+01   -1.1553433505E+01   -1.1502373700E+01   -1.1451762698E+01
   -1.1401594466E+01   -1.1351863205E+01   -1.1302563404E+01   -1.1253689207E+01
   -1.1205235249E+01   -1.1157196174E+01   -1.1109566235E+01   -1.1062340588E+01
   -1.1015514029E+01   -1.0969081254E+01   -1.0923037670E+01   -1.0877378324E+01
   -1.0832098346E+01   -1.0787193207E+01   -1.0742658074E+01   -1.0698488367E+01
   -1.0654679793E+01   -1.0611227736E+01   -1.0568127909E+01   -1.0525376182E+01
   -1.0482968114E+01   -1.0440899682E+01   -1.0399166958E+01   -1.0357765722E+01
   -1.0316692165E+01   -1.0275942528E+01   -1.0235512791E+01   -1.0195399319E+01
   -1.0155598524E+01   -1.0116106573E+01   -1.0076919976E+01   -1.0038035332E+01
   -9.9994490004E+00   -9.9611576091E+00   -9.9231579326E+00   -9.8854465234E+00
   -9.8480200948E+00   -9.8108756006E+00   -9.7740097867E+00   -9.7374194279E+00
   -9.7011016548E+00   -9.6650534070E+00   -9.6292714987E+00   -9.5937532338E+00
   -9.5584957204E+00   -9.5234958725E+00   -9.4887510835E+00   -9.4542586209E+00
   -9.4200155885E+00   -9.3860193592E+00   -9.3522673874E+00   -9.3187569713E+00
   -9.2854854429E+00   -9.2524504388E+00   -9.2196494499E+00   -9.1870797710E+00
   -9.1547391952E+00   -9.1226253349E+00   -9.0907356741E+00   -9.0590679205E+00
   -9.0276198773E+00   -8.9963892274E+00   -8.9653735756E+00   -8.9345709083E+00
   -8.9039790483E+00   -8.8735956811E+00   -8.8434187755E+00   -8.8134463157E+00
   -8.7836761869E+00   -8.7541062162E+00   -8.7247345749E+00   -8.6955592826E+00
   -8.6665782376E+00   -8.6377895695E+00   -8.6091914582E+00   -8.5807820052E+00
   -8.5525591667E+00   -8.5245213089E+00   -8.4966666302E+00   -8.4689932527E+00
   -8.4414993791E+00   -8.4141833966E+00   -8.3870435873E+00   -8.3600781042E+00
   -8.3332853676E+00   -8.3066637865E+00   -8.2802117199E+00   -8.2539273690E+00
   -8.2278093334E+00   -8.2018560503E+00   -8.1760659146E+00   -8.1504372972E+00
   -8.1249688331E+00   -8.0996590319E+00   -8.0745063308E+00   -8.0495092469E+00
   -8.0246664525E+00   -7.9999765265E+00   -7.9754379546E+00   -7.9510493755E+00
   -7.9268095034E+00   -7.9027169830E+00   -7.8787703537E+00   -7.8549683530E+00
   -7.8313097416E+00   -7.8077932269E+00   -7.7844174067E+00   -7.7611810956E+00
   -7.7380831055E+00   -7.7151222038E+00   -7.6922970507E+00   -7.6696065175E+00
   -7.6470494722E+00   -7.6246247396E+00   -7.6023310458E+00   -7.5801673000E+00
   -7.5581324309E+00   -7.5362253178E+00   -7.5144447567E+00   -7.4927896767E+00
   -7.4712590714E+00   -7.4498518717E+00   -7.4285669480E+00   -7.4074032325E+00
   -7.3863597865E+00   -7.3654355910E+00   -7.3446295942E+00   -7.3239407160E+00
   -7.3033680886E+00   -7.2829107402E+00   -7.2625676993E+00   -7.2423378651E+00
   -7.2222204370E+00   -7.2022144901E+00   -7.1823190978E+00   -7.1625332430E+00
   -7.1428560776E+00   -7.1232867593E+00   -7.1038244045E+00   -7.0844680850E+00
   -7.0652168917E+00   -7.0460700661E+00   -7.0270267657E+00   -7.0080861482E+00
   -6.9892472555E+00   -6.9705093901E+00   -6.9518717559E+00   -6.9333335497E+00
   -6.9148939075E+00   -6.8965520419E+00   -6.8783072499E+00   -6.8601587654E+00
   -6.8421058228E+00   -6.8241475412E+00   -6.8062833024E+00   -6.7885123781E+00
   -6.7708340380E+00   -6.7532475016E+00   -6.7357520356E+00   -6.7183470111E+00
   -6.7010317318E+00   -6.6838055016E+00   -6.6666675326E+00   -6.6496172239E+00
   -6.6326539338E+00   -6.6157769984E+00   -6.5989857380E+00   -6.5822794142E+00
   -6.5656574885E+00   -6.5491193279E+00   -6.5326642995E+00   -6.5162917248E+00
   -6.5000009642E+00   -6.4837914783E+00   -6.4676626637E+00   -6.4516139169E+00
   -6.4356445672E+00   -6.4197540559E+00   -6.4039418475E+00   -6.3882073666E+00
   -6.3725500380E+00   -6.3569692046E+00   -6.3414643713E+00   -6.3260350118E+00
   -6.3106805775E+00   -6.2954005198E+00   -6.2801942009E+00   -6.2650611728E+00
   -6.2500009236E+00   -6.2350129303E+00   -6.2200966700E+00   -6.2052515285E+00
   -6.1904770897E+00   -6.1757728615E+00   -6.1611383455E+00   -6.1465730430E+00
   -6.1320763675E+00   -6.1176479211E+00   -6.1032872363E+00   -6.0889938379E+00
   -6.0747672504E+00   -6.0606069195E+00   -6.0465124516E+00   -6.0324834087E+00
   -6.0185193377E+00   -6.0046197853E+00   -5.9907842332E+00   -5.9770122798E+00
   -5.9633035208E+00   -5.9496575240E+00   -5.9360738574E+00   -5.9225520428E+00
   -5.9090916587E+00   -5.8956923382E+00   -5.8823536693E+00   -5.8690752400E+00
   -5.8558566166E+00   -5.8426973466E+00   -5.8295971036E+00   -5.8165554948E+00
   -5.8035721274E+00   -5.7906466086E+00   -5.7777784676E+00   -5.7649673986E+00
   -5.7522130346E+00   -5.7395150010E+00   -5.7268729232E+00   -5.7142863821E+00
   -5.7017550167E+00   -5.6892785099E+00   -5.6768565047E+00   -5.6644886441E+00
   -5.6521745648E+00   -5.6399138419E+00   -5.6277062099E+00   -5.6155513283E+00
   -5.6034488568E+00   -5.5913984550E+00   -5.5793997375E+00   -5.5674523813E+00
   -5.5555560978E+00   -5.5437105625E+00   -5.5319154507E+00   -5.5201704380E+00
   -5.5084751247E+00   -5.4968292732E+00   -5.4852325765E+00   -5.4736847252E+00
   -5.4621854099E+00   -5.4507342964E+00   -5.4393310521E+00   -5.4279754340E+00
   -5.4166671473E+00   -5.4054058967E+00   -5.3941913875E+00   -5.3830232796E+00
   -5.3719013004E+00   -5.3608251990E+00   -5.3497946942E+00   -5.3388095046E+00
   -5.3278693491E+00   -5.3169738876E+00   -5.3061228936E+00   -5.2953161131E+00
   -5.2845532782E+00   -5.2738341204E+00   -5.2631583718E+00   -5.2525256971E+00
   -5.2419359031E+00   -5.2313887377E+00   -5.2208839454E+00   -5.2104212704E+00
   -5.2000004555E+00   -5.1896211795E+00   -5.1792832657E+00   -5.1689864703E+00
   -5.1587305496E+00   -5.1485152598E+00   -5.1383403557E+00   -5.1282055295E+00
   -5.1181106142E+00   -5.1080553775E+00   -5.0980395869E+00   -5.0880630102E+00
   -5.0781254148E+00   -5.0682265059E+00   -5.0583661202E+00   -5.0485440396E+00
   -5.0387600423E+00   -5.0290139070E+00   -5.0193054120E+00   -5.0096342836E+00
   -5.0000003477E+00   -4.9904034057E+00   -4.9808432464E+00   -4.9713196587E+00
   -4.9618324311E+00   -4.9523813152E+00   -4.9429661162E+00   -4.9335866590E+00
   -4.9242427423E+00   -4.9149341646E+00   -4.9056607246E+00   -4.8964222025E+00
   -4.8872183740E+00   -4.8780490909E+00   -4.8689141611E+00   -4.8598133926E+00
   -4.8507465934E+00   -4.8417135715E+00   -4.8327140792E+00   -4.8237479836E+00
   -4.8148151062E+00   -4.8059152640E+00   -4.7970482737E+00   -4.7882139525E+00
   -4.7794120886E+00   -4.7706425005E+00   -4.7619050446E+00   -4.7531995464E+00
   -4.7445258312E+00   -4.7358837245E+00   -4.7272730518E+00   -4.7186935837E+00
   -4.7101452057E+00   -4.7016277537E+00   -4.6931410614E+00   -4.6846849624E+00
   -4.6762592902E+00   -4.6678638580E+00   -4.6594984862E+00   -4.6511630524E+00
   -4.6428573978E+00   -4.6345813639E+00   -4.6263347918E+00   -4.6181175231E+00
   -4.6099293617E+00   -4.6017701731E+00   -4.5936398241E+00   -4.5855381634E+00
   -4.5774650397E+00   -4.5694203017E+00   -4.5614037982E+00   -4.5534153288E+00
   -4.5454547932E+00   -4.5375220516E+00   -4.5296169599E+00   -4.5217393736E+00
   -4.5138891488E+00   -4.5060661370E+00   -4.4982701504E+00   -4.4905010997E+00
   -4.4827588471E+00   -4.4750432554E+00   -4.4673541869E+00   -4.4596915042E+00
   -4.4520550618E+00   -4.4444446879E+00   -4.4368602945E+00   -4.4293017504E+00
   -4.4217689248E+00   -4.4142616863E+00   -4.4067799039E+00   -4.3993234392E+00
   -4.3918921267E+00   -4.3844858839E+00   -4.3771045859E+00   -4.3697481076E+00
   -4.3624163240E+00   -4.3551091103E+00   -4.3478263384E+00   -4.3405678409E+00
   -4.3333335443E+00   -4.3261233293E+00
  </PP_LOCAL>
 <PP_NONLOCAL>
   <PP_BETA.1
       type="real"
       size=" 602"
       columns="4"
       index="1"
       angular_momentum="0"
       cutoff_radius_index=" 248"
       cutoff_radius="    2.4700000000E+00" >
    0.0000000000E+00    1.6474674297E-03    3.2464303783E-03    4.7486636397E-03
    6.1064992659E-03    7.2731019727E-03    8.2027406932E-03    8.8510550228E-03
    9.1753153189E-03    9.1346752533E-03    8.6904156400E-03    7.8061784063E-03
    6.4481896200E-03    4.5854705476E-03    2.1900356797E-03   -7.6292303715E-04
   -4.2948668961E-03   -8.4237564891E-03   -1.3163914287E-02   -1.8525904027E-02
   -2.4516427742E-02   -3.1138240739E-02   -3.8390085119E-02   -4.6266642171E-02
   -5.4758503721E-02   -6.3852162690E-02   -7.3530023304E-02   -8.3770430186E-02
   -9.4547716999E-02   -1.0583227411E-01   -1.1759063502E-01   -1.2978558125E-01
   -1.4237626517E-01   -1.5531835128E-01   -1.6856417216E-01   -1.8206290453E-01
   -1.9576075517E-01   -2.0960116986E-01   -2.2352504722E-01   -2.3747096954E-01
   -2.5137544998E-01   -2.6517318315E-01   -2.7879730923E-01   -2.9217968680E-01
   -3.0525117298E-01   -3.1794190979E-01   -3.3018161497E-01   -3.4189987209E-01
   -3.5302644444E-01   -3.6349156082E-01   -3.7322621578E-01   -3.8216245205E-01
   -3.9023370759E-01   -3.9737504617E-01   -4.0352346450E-01   -4.0861821168E-01
   -4.1260096341E-01   -4.1541623084E-01   -4.1701143742E-01   -4.1733734893E-01
   -4.1634813125E-01   -4.1400169362E-01   -4.1025985130E-01   -4.0508842903E-01
   -3.9845762695E-01   -3.9034200636E-01   -3.8072063611E-01   -3.6957735545E-01
   -3.5690075301E-01   -3.4268427538E-01   -3.2692626765E-01   -3.0963012899E-01
   -2.9080424110E-01   -2.7046199656E-01   -2.4862179376E-01   -2.2530700699E-01
   -2.0054592451E-01   -1.7437171591E-01   -1.4682231652E-01   -1.1794031831E-01
   -8.7772852657E-02   -5.6371449275E-02   -2.3791878313E-02    9.9060235738E-03
    4.4658542465E-02    8.0398290903E-02    1.1705442522E-01    1.5455287556E-01
    1.9281658755E-01    2.3176577474E-01    2.7131818052E-01    3.1138934858E-01