<UPF version="2.0.1">
  <PP_INFO>

 This pseudopotential file has been produced using the code
 ONCVPSP  (Optimized Norm-Conservinng Vanderbilt PSeudopotential)
 scalar-relativistic version 2.1.1, 03/26/2014 by D. R. Hamann
 The code is available through a link at URL www.mat-simresearch.com.
 Documentation with the package provides a full discription of the
 input data below.


 While it is not required under the terms of the GNU GPL, it is
 suggested that you cite D. R. Hamann, Phys. Rev. B 88, 085117 (2013)
 in any publication using these pseudopotentials.


 Copyright 2015 The Regents of the University of California
 
 This work is licensed under the Creative Commons Attribution-ShareAlike 
 4.0 International License. To view a copy of this license, visit 
 http://creativecommons.org/licenses/by-sa/4.0/ or send a letter to 
 Creative Commons, PO Box 1866, Mountain View, CA 94042, USA.
 
 This pseudopotential is part of the Schlipf-Gygi norm-conserving 
 pseudopotential library. Its construction parameters were tuned to 
 reproduce materials of a training set with very high accuracy and 
 should be suitable as a general purpose pseudopotential to treat a 
 variety of different compounds. For details of the construction and 
 testing of the pseudopotential please refer to:
 
 [insert reference to paper here]
 
 We kindly ask that you include this reference in all publications 
 associated to this pseudopotential.


    <PP_INPUTFILE>
# ATOM AND REFERENCE CONFIGURATION
# atsym  z    nc    nv    iexc   psfile
  Ge 32.00     5     3     4      upf
#
#   n    l    f        energy (Ha)
    1    0    2.00
    2    0    2.00
    2    1    6.00
    3    0    2.00
    3    1    6.00
    3    2   10.00
    4    0    2.00
    4    1    2.00
#
# PSEUDOPOTENTIAL AND OPTIMIZATION
# lmax
    2
#
#   l,   rc,     ep,   ncon, nbas, qcut
    0   2.66770  -0.43112    5    8   5.50547
    1   2.54341  -0.14315    5    8   5.20760
    2   2.66770  -1.07715    5    8   6.35698
#
# LOCAL POTENTIAL
# lloc, lpopt,  rc(5),   dvloc0
    4    5   2.02762      0.00000
#
# VANDERBILT-KLEINMAN-BYLANDER PROJECTORs
# l, nproj, debl
    0    2   1.61622
    1    2   1.32070
    2    2   1.21107
#
# MODEL CORE CHARGE
# icmod, fcfact
    0   0.00000
#
# LOG DERIVATIVE ANALYSIS
# epsh1, epsh2, depsh
   -5.00    3.00    0.02
#
# OUTPUT GRID
# rlmax, drl
    6.00    0.01
#
# TEST CONFIGURATIONS
# ncnf
    0
# nvcnf
#   n    l    f
    </PP_INPUTFILE>
  </PP_INFO>
  <!--                               -->
  <!-- END OF HUMAN READABLE SECTION -->
  <!--                               -->
    <PP_HEADER
       generated="Generated using ONCVPSP code by D. R. Hamann"
       author="Martin Schlipf and Francois Gygi"
       date="150105"
       comment=""
       element="Ge"
       pseudo_type="NC"
       relativistic="scalar"
       is_ultrasoft="F"
       is_paw="F"
       is_coulomb="F"
       has_so="F"
       has_wfc="F"
       has_gipaw="F"
       core_correction="F"
       functional="PBE"
       z_valence="   14.00"
       total_psenergy="  -7.06227940821E+01"
       rho_cutoff="   6.01000000000E+00"
       l_max="2"
       l_local="-1"
       mesh_size="   602"
       number_of_wfc="0"
       number_of_proj="6"/>
 <PP_MESH>
   <PP_R type="real"  size=" 602" columns="8">
    0.0000    0.0100    0.0200    0.0300    0.0400    0.0500    0.0600    0.0700
    0.0800    0.0900    0.1000    0.1100    0.1200    0.1300    0.1400    0.1500
    0.1600    0.1700    0.1800    0.1900    0.2000    0.2100    0.2200    0.2300
    0.2400    0.2500    0.2600    0.2700    0.2800    0.2900    0.3000    0.3100
    0.3200    0.3300    0.3400    0.3500    0.3600    0.3700    0.3800    0.3900
    0.4000    0.4100    0.4200    0.4300    0.4400    0.4500    0.4600    0.4700
    0.4800    0.4900    0.5000    0.5100    0.5200    0.5300    0.5400    0.5500
    0.5600    0.5700    0.5800    0.5900    0.6000    0.6100    0.6200    0.6300
    0.6400    0.6500    0.6600    0.6700    0.6800    0.6900    0.7000    0.7100
    0.7200    0.7300    0.7400    0.7500    0.7600    0.7700    0.7800    0.7900
    0.8000    0.8100    0.8200    0.8300    0.8400    0.8500    0.8600    0.8700
    0.8800    0.8900    0.9000    0.9100    0.9200    0.9300    0.9400    0.9500
    0.9600    0.9700    0.9800    0.9900    1.0000    1.0100    1.0200    1.0300
    1.0400    1.0500    1.0600    1.0700    1.0800    1.0900    1.1000    1.1100
    1.1200    1.1300    1.1400    1.1500    1.1600    1.1700    1.1800    1.1900
    1.2000    1.2100    1.2200    1.2300    1.2400    1.2500    1.2600    1.2700
    1.2800    1.2900    1.3000    1.3100    1.3200    1.3300    1.3400    1.3500
    1.3600    1.3700    1.3800    1.3900    1.4000    1.4100    1.4200    1.4300
    1.4400    1.4500    1.4600    1.4700    1.4800    1.4900    1.5000    1.5100
    1.5200    1.5300    1.5400    1.5500    1.5600    1.5700    1.5800    1.5900
    1.6000    1.6100    1.6200    1.6300    1.6400    1.6500    1.6600    1.6700
    1.6800    1.6900    1.7000    1.7100    1.7200    1.7300    1.7400    1.7500
    1.7600    1.7700    1.7800    1.7900    1.8000    1.8100    1.8200    1.8300
    1.8400    1.8500    1.8600    1.8700    1.8800    1.8900    1.9000    1.9100
    1.9200    1.9300    1.9400    1.9500    1.9600    1.9700    1.9800    1.9900
    2.0000    2.0100    2.0200    2.0300    2.0400    2.0500    2.0600    2.0700
    2.0800    2.0900    2.1000    2.1100    2.1200    2.1300    2.1400    2.1500
    2.1600    2.1700    2.1800    2.1900    2.2000    2.2100    2.2200    2.2300
    2.2400    2.2500    2.2600    2.2700    2.2800    2.2900    2.3000    2.3100
    2.3200    2.3300    2.3400    2.3500    2.3600    2.3700    2.3800    2.3900
    2.4000    2.4100    2.4200    2.4300    2.4400    2.4500    2.4600    2.4700
    2.4800    2.4900    2.5000    2.5100    2.5200    2.5300    2.5400    2.5500
    2.5600    2.5700    2.5800    2.5900    2.6000    2.6100    2.6200    2.6300
    2.6400    2.6500    2.6600    2.6700    2.6800    2.6900    2.7000    2.7100
    2.7200    2.7300    2.7400    2.7500    2.7600    2.7700    2.7800    2.7900
    2.8000    2.8100    2.8200    2.8300    2.8400    2.8500    2.8600    2.8700
    2.8800    2.8900    2.9000    2.9100    2.9200    2.9300    2.9400    2.9500
    2.9600    2.9700    2.9800    2.9900    3.0000    3.0100    3.0200    3.0300
    3.0400    3.0500    3.0600    3.0700    3.0800    3.0900    3.1000    3.1100
    3.1200    3.1300    3.1400    3.1500    3.1600    3.1700    3.1800    3.1900
    3.2000    3.2100    3.2200    3.2300    3.2400    3.2500    3.2600    3.2700
    3.2800    3.2900    3.3000    3.3100    3.3200    3.3300    3.3400    3.3500
    3.3600    3.3700    3.3800    3.3900    3.4000    3.4100    3.4200    3.4300
    3.4400    3.4500    3.4600    3.4700    3.4800    3.4900    3.5000    3.5100
    3.5200    3.5300    3.5400    3.5500    3.5600    3.5700    3.5800    3.5900
    3.6000    3.6100    3.6200    3.6300    3.6400    3.6500    3.6600    3.6700
    3.6800    3.6900    3.7000    3.7100    3.7200    3.7300    3.7400    3.7500
    3.7600    3.7700    3.7800    3.7900    3.8000    3.8100    3.8200    3.8300
    3.8400    3.8500    3.8600    3.8700    3.8800    3.8900    3.9000    3.9100
    3.9200    3.9300    3.9400    3.9500    3.9600    3.9700    3.9800    3.9900
    4.0000    4.0100    4.0200    4.0300    4.0400    4.0500    4.0600    4.0700
    4.0800    4.0900    4.1000    4.1100    4.1200    4.1300    4.1400    4.1500
    4.1600    4.1700    4.1800    4.1900    4.2000    4.2100    4.2200    4.2300
    4.2400    4.2500    4.2600    4.2700    4.2800    4.2900    4.3000    4.3100
    4.3200    4.3300    4.3400    4.3500    4.3600    4.3700    4.3800    4.3900
    4.4000    4.4100    4.4200    4.4300    4.4400    4.4500    4.4600    4.4700
    4.4800    4.4900    4.5000    4.5100    4.5200    4.5300    4.5400    4.5500
    4.5600    4.5700    4.5800    4.5900    4.6000    4.6100    4.6200    4.6300
    4.6400    4.6500    4.6600    4.6700    4.6800    4.6900    4.7000    4.7100
    4.7200    4.7300    4.7400    4.7500    4.7600    4.7700    4.7800    4.7900
    4.8000    4.8100    4.8200    4.8300    4.8400    4.8500    4.8600    4.8700
    4.8800    4.8900    4.9000    4.9100    4.9200    4.9300    4.9400    4.9500
    4.9600    4.9700    4.9800    4.9900    5.0000    5.0100    5.0200    5.0300
    5.0400    5.0500    5.0600    5.0700    5.0800    5.0900    5.1000    5.1100
    5.1200    5.1300    5.1400    5.1500    5.1600    5.1700    5.1800    5.1900
    5.2000    5.2100    5.2200    5.2300    5.2400    5.2500    5.2600    5.2700
    5.2800    5.2900    5.3000    5.3100    5.3200    5.3300    5.3400    5.3500
    5.3600    5.3700    5.3800    5.3900    5.4000    5.4100    5.4200    5.4300
    5.4400    5.4500    5.4600    5.4700    5.4800    5.4900    5.5000    5.5100
    5.5200    5.5300    5.5400    5.5500    5.5600    5.5700    5.5800    5.5900
    5.6000    5.6100    5.6200    5.6300    5.6400    5.6500    5.6600    5.6700
    5.6800    5.6900    5.7000    5.7100    5.7200    5.7300    5.7400    5.7500
    5.7600    5.7700    5.7800    5.7900    5.8000    5.8100    5.8200    5.8300
    5.8400    5.8500    5.8600    5.8700    5.8800    5.8900    5.9000    5.9100
    5.9200    5.9300    5.9400    5.9500    5.9600    5.9700    5.9800    5.9900
    6.0000    6.0100
   </PP_R>
   <PP_RAB type="real"  size=" 602" columns="8">
    0.0100    0.0100    0.0100    0.0100    0.0100    0.0100    0.0100    0.0100
    0.0100    0.0100    0.0100    0.0100    0.0100    0.0100    0.0100    0.0100
    0.0100    0.0100    0.0100    0.0100    0.0100    0.0100    0.0100    0.0100
    0.0100    0.0100    0.0100    0.0100    0.0100    0.0100    0.0100    0.0100
    0.0100    0.0100    0.0100    0.0100    0.0100    0.0100    0.0100    0.0100
    0.0100    0.0100    0.0100    0.0100    0.0100    0.0100    0.0100    0.0100
    0.0100    0.0100    0.0100    0.0100    0.0100    0.0100    0.0100    0.0100
    0.0100    0.0100    0.0100    0.0100    0.0100    0.0100    0.0100    0.0100
    0.0100    0.0100    0.0100    0.0100    0.0100    0.0100    0.0100    0.0100
    0.0100    0.0100    0.0100    0.0100    0.0100    0.0100    0.0100    0.0100
    0.0100    0.0100    0.0100    0.0100    0.0100    0.0100    0.0100    0.0100
    0.0100    0.0100    0.0100    0.0100    0.0100    0.0100    0.0100    0.0100
    0.0100    0.0100    0.0100    0.0100    0.0100    0.0100    0.0100    0.0100
    0.0100    0.0100    0.0100    0.0100    0.0100    0.0100    0.0100    0.0100
    0.0100    0.0100    0.0100    0.0100    0.0100    0.0100    0.0100    0.0100
    0.0100    0.0100    0.0100    0.0100    0.0100    0.0100    0.0100    0.0100
    0.0100    0.0100    0.0100    0.0100    0.0100    0.0100    0.0100    0.0100
    0.0100    0.0100    0.0100    0.0100    0.0100    0.0100    0.0100    0.0100
    0.0100    0.0100    0.0100    0.0100    0.0100    0.0100    0.0100    0.0100
    0.0100    0.0100    0.0100    0.0100    0.0100    0.0100    0.0100    0.0100
    0.0100    0.0100    0.0100    0.0100    0.0100    0.0100    0.0100    0.0100
    0.0100    0.0100    0.0100    0.0100    0.0100    0.0100    0.0100    0.0100
    0.0100    0.0100    0.0100    0.0100    0.0100    0.0100    0.0100    0.0100
    0.0100    0.0100    0.0100    0.0100    0.0100    0.0100    0.0100    0.0100
    0.0100    0.0100    0.0100    0.0100    0.0100    0.0100    0.0100    0.0100
    0.0100    0.0100    0.0100    0.0100    0.0100    0.0100    0.0100    0.0100
    0.0100    0.0100    0.0100    0.0100    0.0100    0.0100    0.0100    0.0100
    0.0100    0.0100    0.0100    0.0100    0.0100    0.0100    0.0100    0.0100
    0.0100    0.0100    0.0100    0.0100    0.0100    0.0100    0.0100    0.0100
    0.0100    0.0100    0.0100    0.0100    0.0100    0.0100    0.0100    0.0100
    0.0100    0.0100    0.0100    0.0100    0.0100    0.0100    0.0100    0.0100
    0.0100    0.0100    0.0100    0.0100    0.0100    0.0100    0.0100    0.0100
    0.0100    0.0100    0.0100    0.0100    0.0100    0.0100    0.0100    0.0100
    0.0100    0.0100    0.0100    0.0100    0.0100    0.0100    0.0100    0.0100
    0.0100    0.0100    0.0100    0.0100    0.0100    0.0100    0.0100    0.0100
    0.0100    0.0100    0.0100    0.0100    0.0100    0.0100    0.0100    0.0100
    0.0100    0.0100    0.0100    0.0100    0.0100    0.0100    0.0100    0.0100
    0.0100    0.0100    0.0100    0.0100    0.0100    0.0100    0.0100    0.0100
    0.0100    0.0100    0.0100    0.0100    0.0100    0.0100    0.0100    0.0100
    0.0100    0.0100    0.0100    0.0100    0.0100    0.0100    0.0100    0.0100
    0.0100    0.0100    0.0100    0.0100    0.0100    0.0100    0.0100    0.0100
    0.0100    0.0100    0.0100    0.0100    0.0100    0.0100    0.0100    0.0100
    0.0100    0.0100    0.0100    0.0100    0.0100    0.0100    0.0100    0.0100
    0.0100    0.0100    0.0100    0.0100    0.0100    0.0100    0.0100    0.0100
    0.0100    0.0100    0.0100    0.0100    0.0100    0.0100    0.0100    0.0100
    0.0100    0.0100    0.0100    0.0100    0.0100    0.0100    0.0100    0.0100
    0.0100    0.0100    0.0100    0.0100    0.0100    0.0100    0.0100    0.0100
    0.0100    0.0100    0.0100    0.0100    0.0100    0.0100    0.0100    0.0100
    0.0100    0.0100    0.0100    0.0100    0.0100    0.0100    0.0100    0.0100
    0.0100    0.0100    0.0100    0.0100    0.0100    0.0100    0.0100    0.0100
    0.0100    0.0100    0.0100    0.0100    0.0100    0.0100    0.0100    0.0100
    0.0100    0.0100    0.0100    0.0100    0.0100    0.0100    0.0100    0.0100
    0.0100    0.0100    0.0100    0.0100    0.0100    0.0100    0.0100    0.0100
    0.0100    0.0100    0.0100    0.0100    0.0100    0.0100    0.0100    0.0100
    0.0100    0.0100    0.0100    0.0100    0.0100    0.0100    0.0100    0.0100
    0.0100    0.0100    0.0100    0.0100    0.0100    0.0100    0.0100    0.0100
    0.0100    0.0100    0.0100    0.0100    0.0100    0.0100    0.0100    0.0100
    0.0100    0.0100    0.0100    0.0100    0.0100    0.0100    0.0100    0.0100
    0.0100    0.0100    0.0100    0.0100    0.0100    0.0100    0.0100    0.0100
    0.0100    0.0100    0.0100    0.0100    0.0100    0.0100    0.0100    0.0100
    0.0100    0.0100    0.0100    0.0100    0.0100    0.0100    0.0100    0.0100
    0.0100    0.0100    0.0100    0.0100    0.0100    0.0100    0.0100    0.0100
    0.0100    0.0100    0.0100    0.0100    0.0100    0.0100    0.0100    0.0100
    0.0100    0.0100    0.0100    0.0100    0.0100    0.0100    0.0100    0.0100
    0.0100    0.0100    0.0100    0.0100    0.0100    0.0100    0.0100    0.0100
    0.0100    0.0100    0.0100    0.0100    0.0100    0.0100    0.0100    0.0100
    0.0100    0.0100    0.0100    0.0100    0.0100    0.0100    0.0100    0.0100
    0.0100    0.0100    0.0100    0.0100    0.0100    0.0100    0.0100    0.0100
    0.0100    0.0100    0.0100    0.0100    0.0100    0.0100    0.0100    0.0100
    0.0100    0.0100    0.0100    0.0100    0.0100    0.0100    0.0100    0.0100
    0.0100    0.0100    0.0100    0.0100    0.0100    0.0100    0.0100    0.0100
    0.0100    0.0100    0.0100    0.0100    0.0100    0.0100    0.0100    0.0100
    0.0100    0.0100    0.0100    0.0100    0.0100    0.0100    0.0100    0.0100
    0.0100    0.0100    0.0100    0.0100    0.0100    0.0100    0.0100    0.0100
    0.0100    0.0100    0.0100    0.0100    0.0100    0.0100    0.0100    0.0100
    0.0100    0.0100
   </PP_RAB>
 </PP_MESH>
  <PP_LOCAL type="real"  size=" 602" columns="4">
   -6.3638657019E+01   -3.7785461341E+01   -2.8763891321E+01   -2.8471875864E+01
   -2.8807343876E+01   -2.8874265270E+01   -2.8875337314E+01   -2.8858629110E+01
   -2.8833517160E+01   -2.8802245190E+01   -2.8765818155E+01   -2.8725062608E+01
   -2.8680778113E+01   -2.8633736536E+01   -2.8584675669E+01   -2.8534305851E+01
   -2.8483324080E+01   -2.8432428995E+01   -2.8382332459E+01   -2.8333765397E+01
   -2.8287476545E+01   -2.8244223251E+01   -2.8204753810E+01   -2.8169781154E+01
   -2.8139948270E+01   -2.8115786695E+01   -2.8097669791E+01   -2.8085764798E+01
   -2.8079987308E+01   -2.8079963586E+01   -2.8085006608E+01   -2.8094110401E+01
   -2.8105967450E+01   -2.8119011059E+01   -2.8131481358E+01   -2.8141512621E+01
   -2.8147234668E+01   -2.8146879736E+01   -2.8138886655E+01   -2.8121989955E+01
   -2.8095288468E+01   -2.8058286500E+01   -2.8010904768E+01   -2.7953461830E+01
   -2.7886627884E+01   -2.7811358869E+01   -2.7728815902E+01   -2.7640279592E+01
   -2.7547066919E+01   -2.7450457964E+01   -2.7351637685E+01   -2.7251652333E+01
   -2.7151388265E+01   -2.7051564613E+01   -2.6952735477E+01   -2.6855310342E+01
   -2.6759568592E+01   -2.6665686877E+01   -2.6573757215E+01   -2.6483810233E+01
   -2.6395829326E+01   -2.6309766866E+01   -2.6225553074E+01   -2.6143104633E+01
   -2.6062329825E+01   -2.5983131479E+01   -2.5905408935E+01   -2.5829058388E+01
   -2.5753972272E+01   -2.5680038107E+01   -2.5607136942E+01   -2.5535141559E+01
   -2.5463914710E+01   -2.5393307052E+01   -2.5323156316E+01   -2.5253286482E+01
   -2.5183507807E+01   -2.5113617741E+01   -2.5043402820E+01   -2.4972641581E+01
   -2.4901108450E+01   -2.4828578537E+01   -2.4754833172E+01   -2.4679665700E+01
   -2.4602887380E+01   -2.4524332951E+01   -2.4443865510E+01   -2.4361380354E+01
   -2.4276807538E+01   -2.4190112802E+01   -2.4101297565E+01   -2.4010397284E+01
   -2.3917477981E+01   -2.3822632440E+01   -2.3725975538E+01   -2.3627639248E+01
   -2.3527767592E+01   -2.3426511847E+01   -2.3324026177E+01   -2.3220464077E+01
   -2.3115974882E+01   -2.3010701165E+01   -2.2904777304E+01   -2.2798328304E+01
   -2.2691469220E+01   -2.2584305628E+01   -2.2476931844E+01   -2.2369433066E+01
   -2.2261885828E+01   -2.2154358729E+01   -2.2046913384E+01   -2.1939603759E+01
   -2.1832478876E+01   -2.1725582900E+01   -2.1618956099E+01   -2.1512634049E+01
   -2.1406649776E+01   -2.1301033740E+01   -2.1195813931E+01   -2.1091015865E+01
   -2.0986663457E+01   -2.0882779195E+01   -2.0779383214E+01   -2.0676494255E+01
   -2.0574129791E+01   -2.0472305096E+01   -2.0371033594E+01   -2.0270327437E+01
   -2.0170196203E+01   -2.0070647114E+01   -1.9971686103E+01   -1.9873315599E+01
   -1.9775535506E+01   -1.9678344518E+01   -1.9581736362E+01   -1.9485703208E+01
   -1.9390234794E+01   -1.9295316266E+01   -1.9200932005E+01   -1.9107062254E+01
   -1.9013685090E+01   -1.8920777354E+01   -1.8828312228E+01   -1.8736262986E+01
   -1.8644600689E+01   -1.8553296514E+01   -1.8462320916E+01   -1.8371645822E+01
   -1.8281242635E+01   -1.8191086464E+01   -1.8101152862E+01   -1.8011421149E+01
   -1.7921874187E+01   -1.7832496712E+01   -1.7743281232E+01   -1.7654218984E+01
   -1.7565313198E+01   -1.7476563091E+01   -1.7387981679E+01   -1.7299578197E+01
   -1.7211373375E+01   -1.7123386288E+01   -1.7035644487E+01   -1.6948175284E+01
   -1.6861011749E+01   -1.6774187170E+01   -1.6687738392E+01   -1.6601702003E+01
   -1.6516116407E+01   -1.6431018619E+01   -1.6346445846E+01   -1.6262432660E+01
   -1.6179011739E+01   -1.6096212563E+01   -1.6014059411E+01   -1.5932574483E+01
   -1.5851769556E+01   -1.5771657977E+01   -1.5692235465E+01   -1.5613505486E+01
   -1.5535446050E+01   -1.5458049819E+01   -1.5381280032E+01   -1.5305114181E+01
   -1.5229509458E+01   -1.5154428075E+01   -1.5079826663E+01   -1.5005659401E+01
   -1.4931883996E+01   -1.4858458889E+01   -1.4785342110E+01   -1.4712508930E+01
   -1.4639918238E+01   -1.4567564716E+01   -1.4495424068E+01   -1.4423497349E+01
   -1.4351786095E+01   -1.4280294265E+01   -1.4209046107E+01   -1.4138050949E+01
   -1.4067342792E+01   -1.3996945846E+01   -1.3926890161E+01   -1.3857207883E+01
   -1.3787929786E+01   -1.3719084827E+01   -1.3650705823E+01   -1.3582816470E+01
   -1.3515443272E+01   -1.3448611009E+01   -1.3382334305E+01   -1.3316637290E+01
   -1.3251528408E+01   -1.3187020506E+01   -1.3123125331E+01   -1.3059844206E+01
   -1.2997186558E+01   -1.2935151303E+01   -1.2873738471E+01   -1.2812950049E+01
   -1.2752779714E+01   -1.2693225802E+01   -1.2634283156E+01   -1.2575944765E+01
   -1.2518206354E+01   -1.2461059205E+01   -1.2404496068E+01   -1.2348509770E+01
   -1.2293091260E+01   -1.2238232507E+01   -1.2183924920E+01   -1.2130159530E+01
   -1.2076927711E+01   -1.2024220545E+01   -1.1972029143E+01   -1.1920344562E+01
   -1.1869158120E+01   -1.1818460974E+01   -1.1768244256E+01   -1.1718499619E+01
   -1.1669218341E+01   -1.1620391899E+01   -1.1572012319E+01   -1.1524071086E+01
   -1.1476560185E+01   -1.1429472062E+01   -1.1382798499E+01   -1.1336532082E+01
   -1.1290665739E+01   -1.1245191631E+01   -1.1200102994E+01   -1.1155393296E+01
   -1.1111055157E+01   -1.1067082469E+01   -1.1023469328E+01   -1.0980208885E+01
   -1.0937295688E+01   -1.0894724564E+01   -1.0852489363E+01   -1.0810585188E+01
   -1.0769007622E+01   -1.0727751333E+01   -1.0686811833E+01   -1.0646185368E+01
   -1.0605867366E+01   -1.0565853639E+01   -1.0526141061E+01   -1.0486725809E+01
   -1.0447603963E+01   -1.0408772786E+01   -1.0370229023E+01   -1.0331969150E+01
   -1.0293990401E+01   -1.0256289717E+01   -1.0218863895E+01   -1.0181710071E+01
   -1.0144825342E+01   -1.0108206627E+01   -1.0071851064E+01   -1.0035755987E+01
   -9.9999185561E+00   -9.9643358654E+00   -9.9290054286E+00   -9.8939245794E+00
   -9.8590904669E+00   -9.8245006718E+00   -9.7901526896E+00   -9.7560438787E+00
   -9.7221717191E+00   -9.6885339107E+00   -9.6551280285E+00   -9.6219514412E+00
   -9.5890020395E+00   -9.5562775107E+00   -9.5237754309E+00   -9.4914935487E+00
   -9.4594297617E+00   -9.4275818640E+00   -9.3959474529E+00   -9.3645246191E+00
   -9.3333112598E+00   -9.3023051823E+00   -9.2715042975E+00   -9.2409067147E+00
   -9.2105104279E+00   -9.1803132709E+00   -9.1503134377E+00   -9.1205090510E+00
   -9.0908981628E+00   -9.0614787536E+00   -9.0322491548E+00   -9.0032075424E+00
   -8.9743519998E+00   -8.9456807356E+00   -8.9171921092E+00   -8.8888843813E+00
   -8.8607556760E+00   -8.8328044002E+00   -8.8050289438E+00   -8.7774276481E+00
   -8.7499986866E+00   -8.7227406338E+00   -8.6956519152E+00   -8.6687309256E+00
   -8.6419759660E+00   -8.6153856779E+00   -8.5889585529E+00   -8.5626930375E+00
   -8.5365875590E+00   -8.5106408062E+00   -8.4848513410E+00   -8.4592176674E+00
   -8.4337383150E+00   -8.4084120243E+00   -8.3832374240E+00   -8.3582130811E+00
   -8.3333376045E+00   -8.3086097909E+00   -8.2840283329E+00   -8.2595918650E+00
   -8.2352990542E+00   -8.2111487578E+00   -8.1871397292E+00   -8.1632706755E+00
   -8.1395403009E+00   -8.1159475281E+00   -8.0924911684E+00   -8.0691700054E+00
   -8.0459827625E+00   -8.0229284310E+00   -8.0000058776E+00   -7.9772139666E+00
   -7.9545514238E+00   -7.9320173117E+00   -7.9096105497E+00   -7.8873300572E+00
   -7.8651746369E+00   -7.8431433348E+00   -7.8212351503E+00   -7.7994490531E+00
   -7.7777839346E+00   -7.7562388012E+00   -7.7348127373E+00   -7.7135047606E+00
   -7.6923138562E+00   -7.6712389767E+00   -7.6502792927E+00   -7.6294338676E+00
   -7.6087017648E+00   -7.5880819315E+00   -7.5675735647E+00   -7.5471757908E+00
   -7.5268877170E+00   -7.5067083901E+00   -7.4866369200E+00   -7.4666725304E+00
   -7.4468143697E+00   -7.4270615867E+00   -7.4074132056E+00   -7.3878685335E+00
   -7.3684267624E+00   -7.3490870805E+00   -7.3298486181E+00   -7.3107105668E+00
   -7.2916722236E+00   -7.2727328145E+00   -7.2538915657E+00   -7.2351475960E+00
   -7.2165002527E+00   -7.1979488146E+00   -7.1794925439E+00   -7.1611306731E+00
   -7.1428624090E+00   -7.1246871404E+00   -7.1066041638E+00   -7.0886127757E+00
   -7.0707122068E+00   -7.0529017822E+00   -7.0351808857E+00   -7.0175488464E+00
   -7.0000049937E+00   -6.9825485640E+00   -6.9651789805E+00   -6.9478956270E+00
   -6.9306978640E+00   -6.9135850520E+00   -6.8965564404E+00   -6.8796115301E+00
   -6.8627497112E+00   -6.8459703743E+00   -6.8292728937E+00   -6.8126565848E+00
   -6.7961209604E+00   -6.7796654394E+00   -6.7632894402E+00   -6.7469923574E+00
   -6.7307735556E+00   -6.7146325645E+00   -6.6985688297E+00   -6.6825817971E+00
   -6.6666708862E+00   -6.6508354953E+00   -6.6350751756E+00   -6.6193893985E+00
   -6.6037776359E+00   -6.5882393374E+00   -6.5727739197E+00   -6.5573809605E+00
   -6.5420599558E+00   -6.5268104020E+00   -6.5116317839E+00   -6.4965235226E+00
   -6.4814852264E+00   -6.4665164149E+00   -6.4516166079E+00   -6.4367853250E+00
   -6.4220219935E+00   -6.4073262414E+00   -6.3926976158E+00   -6.3781356586E+00
   -6.3636399120E+00   -6.3492098478E+00   -6.3348450670E+00   -6.3205451595E+00
   -6.3063096887E+00   -6.2921382180E+00   -6.2780302683E+00   -6.2639854018E+00
   -6.2500032546E+00   -6.2360834105E+00   -6.2222254532E+00   -6.2084289572E+00
   -6.1946934354E+00   -6.1810185727E+00   -6.1674039721E+00   -6.1538492368E+00
   -6.1403539699E+00   -6.1269177127E+00   -6.1135401142E+00   -6.1002208245E+00
   -6.0869594652E+00   -6.0737556579E+00   -6.0606090052E+00   -6.0475190827E+00
   -6.0344855980E+00   -6.0215081905E+00   -6.0085864996E+00   -5.9957201643E+00
   -5.9829087663E+00   -5.9701519851E+00   -5.9574495051E+00   -5.9448009825E+00
   -5.9322060733E+00   -5.9196644281E+00   -5.9071756320E+00   -5.8947394342E+00
   -5.8823555068E+00   -5.8700235220E+00   -5.8577431518E+00   -5.8455140362E+00
   -5.8333358349E+00   -5.8212082854E+00   -5.8091310752E+00   -5.7971038915E+00
   -5.7851264217E+00   -5.7731983015E+00   -5.7613192505E+00   -5.7494889992E+00
   -5.7377072496E+00   -5.7259737036E+00   -5.7142880631E+00   -5.7026499653E+00
   -5.6910591751E+00   -5.6795154214E+00   -5.6680184201E+00   -5.6565678869E+00
   -5.6451635377E+00   -5.6338050166E+00   -5.6224921197E+00   -5.6112245799E+00
   -5.6000021261E+00   -5.5888244875E+00   -5.5776913932E+00   -5.5666024988E+00
   -5.5555576189E+00   -5.5445564955E+00   -5.5335988702E+00   -5.5226844846E+00
   -5.5118130805E+00   -5.5009843295E+00   -5.4901980530E+00   -5.4794540065E+00
   -5.4687519437E+00   -5.4580916185E+00   -5.4474727845E+00   -5.4368951335E+00
   -5.4263584822E+00   -5.4158626047E+00   -5.4054072660E+00   -5.3949922315E+00
   -5.3846172663E+00   -5.3742820864E+00   -5.3639864933E+00   -5.3537302836E+00
   -5.3435132334E+00   -5.3333351189E+00   -5.3231957161E+00   -5.3130947695E+00
   -5.3030320553E+00   -5.2930073963E+00   -5.2830205792E+00   -5.2730713904E+00
   -5.2631596167E+00   -5.2532850347E+00   -5.2434473860E+00   -5.2336465232E+00
   -5.2238822428E+00   -5.2141543413E+00   -5.2044626152E+00   -5.1948068611E+00
   -5.1851868268E+00   -5.1756023483E+00   -5.1660532477E+00   -5.1565393310E+00
   -5.1470604041E+00   -5.1376162732E+00   -5.1282067261E+00   -5.1188315441E+00
   -5.1094905873E+00   -5.1001836707E+00   -5.0909106095E+00   -5.0816712187E+00
   -5.0724653133E+00   -5.0632926631E+00   -5.0541531179E+00   -5.0450465179E+00
   -5.0359726868E+00   -5.0269314483E+00   -5.0179226260E+00   -5.0089460371E+00
   -5.0000014590E+00   -4.9910887770E+00   -4.9822078229E+00   -4.9733584286E+00
   -4.9645404260E+00   -4.9557536470E+00   -4.9469978997E+00   -4.9382730072E+00
   -4.9295788447E+00   -4.9209152518E+00   -4.9122820682E+00   -4.9036791337E+00
   -4.8951062880E+00   -4.8865633355E+00   -4.8780501330E+00   -4.8695665503E+00
   -4.8611124345E+00   -4.8526876328E+00   -4.8442919923E+00   -4.8359253602E+00
   -4.8275875421E+00   -4.8192784173E+00   -4.8109978547E+00   -4.8027457086E+00
   -4.7945218332E+00   -4.7863260829E+00   -4.7781583120E+00   -4.7700183314E+00
   -4.7619060324E+00   -4.7538212877E+00   -4.7457639584E+00   -4.7377339054E+00
   -4.7297309899E+00   -4.7217550731E+00   -4.7138059753E+00   -4.7058835900E+00
   -4.6979877977E+00   -4.6901184660E+00   -4.6822754624E+00   -4.6744586546E+00
   -4.6666679100E+00   -4.6589030628E+00
  </PP_LOCAL>
 <PP_NONLOCAL>
   <PP_BETA.1
       type="real"
       size=" 602"
       columns="4"
       index="1"
       angular_momentum="0"
       cutoff_radius_index=" 270"
       cutoff_radius="    2.6900000000E+00" >
    0.0000000000E+00   -5.0402448227E-02   -1.0073524551E-01   -1.5092887997E-01
   -2.0091411744E-01   -2.5062213958E-01   -2.9998468079E-01   -3.4893416390E-01
   -3.9740383411E-01   -4.4532789093E-01   -4.9264161780E-01   -5.3928150896E-01
   -5.8518539350E-01   -6.3029255602E-01   -6.7454385383E-01   -7.1788183018E-01
   -7.6025082356E-01   -8.0159707246E-01   -8.4186881563E-01   -8.8101638736E-01
   -9.1899230789E-01   -9.5575136826E-01   -9.9125070988E-01   -1.0254498984E+00
   -1.0583109918E+00   -1.0897986022E+00   -1.1198799522E+00   -1.1485249240E+00
   -1.1757061036E+00   -1.2013988172E+00   -1.2255811619E+00   -1.2482340299E+00
   -1.2693411259E+00   -1.2888889778E+00   -1.3068669415E+00   -1.3232671986E+00
   -1.3380847478E+00   -1.3513173896E+00   -1.3629657056E+00   -1.3730330303E+00
   -1.3815254173E+00   -1.3884516001E+00   -1.3938229460E+00   -1.3976534046E+00
   -1.3999594512E+00   -1.4007600246E+00   -1.4000764590E+00   -1.3979324122E+00
   -1.3943537879E+00   -1.3893686551E+00   -1.3830071634E+00   -1.3753014467E+00
   -1.3662855373E+00   -1.3559952700E+00   -1.3444681670E+00   -1.3317433606E+00
   -1.3178614574E+00   -1.3028644614E+00   -1.2867956321E+00   -1.2696994117E+00
   -1.2516212624E+00   -1.2326076133E+00   -1.2127056852E+00   -1.1919634115E+00
   -1.1704293427E+00   -1.1481524610E+00   -1.1251821312E+00   -1.1015679843E+00
   -1.0773597644E+00   -1.0526072382E+00   -1.0273600987E+00   -1.0016678540E+00
   -9.7557972823E-01   -9.4914451353E-01   -9.2241052426E-01   -8.9542548285E-01
   -8.6823642640E-01   -8.4088961683E-01   -8.1343045471E-01   -7.8590339707E-01
   -7.5835188649E-01   -7.3081825712E-01   -7.0334367925E-01   -6.7596809655E-01
   -6.4873016164E-01   -6.2166718016E-01   -5.9481505956E-01   -5.6820826262E-01
   -5.4187976606E-01   -5.1586103129E-01   -4.9018196066E-01   -4.6487086510E-01
   -4.3995445899E-01   -4.1545783624E-01   -3.9140445821E-01   -3.6781614644E-01