<UPF version="2.0.1">
  <PP_INFO>

 H_ONCV_PBE_FR-1.0.upf

 This pseudopotential file has been produced using the code
 ONCVPSP  (Optimized Norm-Conservinng Vanderbilt PSeudopotential)
 fully-relativistic version 2.1.1, 03/26/2014 by D. R. Hamann
 The code is available through a link at URL www.mat-simresearch.com.
 Documentation with the package provides a full description of the
 input data below.

 While it is not required under the terms of the GNU GPL, it is
 suggested that you cite D. R. Hamann, Phys. Rev. B 88, 085117 (2013)
 in any publication using these pseudopotentials.

 -----

 This pseudopotential was produced with the SG15 1.0 and/or 1.1
 parameter sets, the Schlipf-Gygi norm-conserving pseudopotential
 library. For details of the construction and testing of the
 pseudopotential please refer to:

 M. Schlipf, F. Gygi, Comp. Phys. Comm. 196, 36 (2015)
 http://dx.doi.org/10.1016/j.cpc.2015.05.011

 The above authors kindly ask that you include this reference in all
 publications associated to this pseudopotential.

 Please note this fully-relativistic version does not employ the
 above self-consistent procedure at the fully-relativistic level.

 -----

 This pseudopotential was produced by Peter Scherpelz for the purpose
 of performing GW calculations with spin-orbit-coupling. Please see
 the publication:

 P. Scherpelz, M. Govoni, I. Hamada, G. Galli; J. Chem. Theory Comput. (2016)
 http://dx.doi.org/10.1021/acs.jctc.6b00114

 If you use these pseudopotentials in your work, we also kindly ask
 that you cite the above publication.

 -----

 This work is licensed under the Creative Commons Attribution-ShareAlike 
 4.0 International License. To view a copy of this license, visit 
 http://creativecommons.org/licenses/by-sa/4.0/ or send a letter to 
 Creative Commons, PO Box 1866, Mountain View, CA 94042, USA.

 The SG15 library is Copyright 2015 The Regents of the University of
 California.  Further modifications of these files are Copyright 2016
 Peter Scherpelz.


 Copyright 2015 The Regents of the University of California
 
 This work is licensed under the Creative Commons Attribution-ShareAlike 
 4.0 International License. To view a copy of this license, visit 
 http://creativecommons.org/licenses/by-sa/4.0/ or send a letter to 
 Creative Commons, PO Box 1866, Mountain View, CA 94042, USA.
 
 This pseudopotential is part of the Schlipf-Gygi norm-conserving 
 pseudopotential library. Its construction parameters were tuned to 
 reproduce materials of a training set with very high accuracy and 
 should be suitable as a general purpose pseudopotential to treat a 
 variety of different compounds. For details of the construction and 
 testing of the pseudopotential please refer to:
 
 [insert reference to paper here]
 
 We kindly ask that you include this reference in all publications 
 associated to this pseudopotential.
 
 (EDITED BY Peter Scherpelz 7/2/15 for fully-relativistic)


    <PP_INPUTFILE>
# ATOM AND REFERENCE CONFIGURATION
# atsym  z    nc    nv    iexc   psfile
  H  1.00     0     1     4      upf
#
#   n    l    f        energy (Ha)
    1    0    1.00
#
# PSEUDOPOTENTIAL AND OPTIMIZATION
# lmax
    0
#
#   l,   rc,     ep,   ncon, nbas, qcut
    0    1.14   -0.24    5    8    9.72
#
# LOCAL POTENTIAL
# lloc, lpopt,  rc(5),   dvloc0
    4    5      0.49       0.00
#
# VANDERBILT-KLEINMAN-BYLANDER PROJECTORs
# l, nproj, debl
    0    2    1.2746
#
# MODEL CORE CHARGE
# icmod, fcfact
    0    0.00
#
# LOG DERIVATIVE ANALYSIS
# epsh1, epsh2, depsh
   -5.00    3.00    0.02
#
# OUTPUT GRID
# rlmax, drl
    6.00    0.01
#
# TEST CONFIGURATIONS
# ncnf
    0
# nvcnf
#   n    l    f
    </PP_INPUTFILE>
  </PP_INFO>
  <!--                               -->
  <!-- END OF HUMAN READABLE SECTION -->
  <!--                               -->
    <PP_HEADER
       generated="Generated using ONCVPSP code by D. R. Hamann"
       author="Martin Schlipf and Francois Gygi"
       date="150813"
       comment=""
       element="H "
       pseudo_type="NC"
       relativistic="full"
       is_ultrasoft="F"
       is_paw="F"
       is_coulomb="F"
       has_so="T"
       has_wfc="F"
       has_gipaw="F"
       core_correction="F"
       functional="PBE"
       z_valence="    1.00"
       total_psenergy="  -4.58787350725E-01"
       rho_cutoff="   6.01000000000E+00"
       l_max="0"
       l_local="-1"
       mesh_size="   602"
       number_of_wfc="0"
       number_of_proj="2"/>
 <PP_MESH>
   <PP_R type="real"  size=" 602" columns="8">
    0.0000    0.0100    0.0200    0.0300    0.0400    0.0500    0.0600    0.0700
    0.0800    0.0900    0.1000    0.1100    0.1200    0.1300    0.1400    0.1500
    0.1600    0.1700    0.1800    0.1900    0.2000    0.2100    0.2200    0.2300
    0.2400    0.2500    0.2600    0.2700    0.2800    0.2900    0.3000    0.3100
    0.3200    0.3300    0.3400    0.3500    0.3600    0.3700    0.3800    0.3900
    0.4000    0.4100    0.4200    0.4300    0.4400    0.4500    0.4600    0.4700
    0.4800    0.4900    0.5000    0.5100    0.5200    0.5300    0.5400    0.5500
    0.5600    0.5700    0.5800    0.5900    0.6000    0.6100    0.6200    0.6300
    0.6400    0.6500    0.6600    0.6700    0.6800    0.6900    0.7000    0.7100
    0.7200    0.7300    0.7400    0.7500    0.7600    0.7700    0.7800    0.7900
    0.8000    0.8100    0.8200    0.8300    0.8400    0.8500    0.8600    0.8700
    0.8800    0.8900    0.9000    0.9100    0.9200    0.9300    0.9400    0.9500
    0.9600    0.9700    0.9800    0.9900    1.0000    1.0100    1.0200    1.0300
    1.0400    1.0500    1.0600    1.0700    1.0800    1.0900    1.1000    1.1100
    1.1200    1.1300    1.1400    1.1500    1.1600    1.1700    1.1800    1.1900
    1.2000    1.2100    1.2200    1.2300    1.2400    1.2500    1.2600    1.2700
    1.2800    1.2900    1.3000    1.3100    1.3200    1.3300    1.3400    1.3500
    1.3600    1.3700    1.3800    1.3900    1.4000    1.4100    1.4200    1.4300
    1.4400    1.4500    1.4600    1.4700    1.4800    1.4900    1.5000    1.5100
    1.5200    1.5300    1.5400    1.5500    1.5600    1.5700    1.5800    1.5900
    1.6000    1.6100    1.6200    1.6300    1.6400    1.6500    1.6600    1.6700
    1.6800    1.6900    1.7000    1.7100    1.7200    1.7300    1.7400    1.7500
    1.7600    1.7700    1.7800    1.7900    1.8000    1.8100    1.8200    1.8300
    1.8400    1.8500    1.8600    1.8700    1.8800    1.8900    1.9000    1.9100
    1.9200    1.9300    1.9400    1.9500    1.9600    1.9700    1.9800    1.9900
    2.0000    2.0100    2.0200    2.0300    2.0400    2.0500    2.0600    2.0700
    2.0800    2.0900    2.1000    2.1100    2.1200    2.1300    2.1400    2.1500
    2.1600    2.1700    2.1800    2.1900    2.2000    2.2100    2.2200    2.2300
    2.2400    2.2500    2.2600    2.2700    2.2800    2.2900    2.3000    2.3100
    2.3200    2.3300    2.3400    2.3500    2.3600    2.3700    2.3800    2.3900
    2.4000    2.4100    2.4200    2.4300    2.4400    2.4500    2.4600    2.4700
    2.4800    2.4900    2.5000    2.5100    2.5200    2.5300    2.5400    2.5500
    2.5600    2.5700    2.5800    2.5900    2.6000    2.6100    2.6200    2.6300
    2.6400    2.6500    2.6600    2.6700    2.6800    2.6900    2.7000    2.7100
    2.7200    2.7300    2.7400    2.7500    2.7600    2.7700    2.7800    2.7900
    2.8000    2.8100    2.8200    2.8300    2.8400    2.8500    2.8600    2.8700
    2.8800    2.8900    2.9000    2.9100    2.9200    2.9300    2.9400    2.9500
    2.9600    2.9700    2.9800    2.9900    3.0000    3.0100    3.0200    3.0300
    3.0400    3.0500    3.0600    3.0700    3.0800    3.0900    3.1000    3.1100
    3.1200    3.1300    3.1400    3.1500    3.1600    3.1700    3.1800    3.1900
    3.2000    3.2100    3.2200    3.2300    3.2400    3.2500    3.2600    3.2700
    3.2800    3.2900    3.3000    3.3100    3.3200    3.3300    3.3400    3.3500
    3.3600    3.3700    3.3800    3.3900    3.4000    3.4100    3.4200    3.4300
    3.4400    3.4500    3.4600    3.4700    3.4800    3.4900    3.5000    3.5100
    3.5200    3.5300    3.5400    3.5500    3.5600    3.5700    3.5800    3.5900
    3.6000    3.6100    3.6200    3.6300    3.6400    3.6500    3.6600    3.6700
    3.6800    3.6900    3.7000    3.7100    3.7200    3.7300    3.7400    3.7500
    3.7600    3.7700    3.7800    3.7900    3.8000    3.8100    3.8200    3.8300
    3.8400    3.8500    3.8600    3.8700    3.8800    3.8900    3.9000    3.9100
    3.9200    3.9300    3.9400    3.9500    3.9600    3.9700    3.9800    3.9900
    4.0000    4.0100    4.0200    4.0300    4.0400    4.0500    4.0600    4.0700
    4.0800    4.0900    4.1000    4.1100    4.1200    4.1300    4.1400    4.1500
    4.1600    4.1700    4.1800    4.1900    4.2000    4.2100    4.2200    4.2300
    4.2400    4.2500    4.2600    4.2700    4.2800    4.2900    4.3000    4.3100
    4.3200    4.3300    4.3400    4.3500    4.3600    4.3700    4.3800    4.3900
    4.4000    4.4100    4.4200    4.4300    4.4400    4.4500    4.4600    4.4700
    4.4800    4.4900    4.5000    4.5100    4.5200    4.5300    4.5400    4.5500
    4.5600    4.5700    4.5800    4.5900    4.6000    4.6100    4.6200    4.6300
    4.6400    4.6500    4.6600    4.6700    4.6800    4.6900    4.7000    4.7100
    4.7200    4.7300    4.7400    4.7500    4.7600    4.7700    4.7800    4.7900
    4.8000    4.8100    4.8200    4.8300    4.8400    4.8500    4.8600    4.8700
    4.8800    4.8900    4.9000    4.9100    4.9200    4.9300    4.9400    4.9500
    4.9600    4.9700    4.9800    4.9900    5.0000    5.0100    5.0200    5.0300
    5.0400    5.0500    5.0600    5.0700    5.0800    5.0900    5.1000    5.1100
    5.1200    5.1300    5.1400    5.1500    5.1600    5.1700    5.1800    5.1900
    5.2000    5.2100    5.2200    5.2300    5.2400    5.2500    5.2600    5.2700
    5.2800    5.2900    5.3000    5.3100    5.3200    5.3300    5.3400    5.3500
    5.3600    5.3700    5.3800    5.3900    5.4000    5.4100    5.4200    5.4300
    5.4400    5.4500    5.4600    5.4700    5.4800    5.4900    5.5000    5.5100
    5.5200    5.5300    5.5400    5.5500    5.5600    5.5700    5.5800    5.5900
    5.6000    5.6100    5.6200    5.6300    5.6400    5.6500    5.6600    5.6700
    5.6800    5.6900    5.7000    5.7100    5.7200    5.7300    5.7400    5.7500
    5.7600    5.7700    5.7800    5.7900    5.8000    5.8100    5.8200    5.8300
    5.8400    5.8500    5.8600    5.8700    5.8800    5.8900    5.9000    5.9100
    5.9200    5.9300    5.9400    5.9500    5.9600    5.9700    5.9800    5.9900
    6.0000    6.0100
   </PP_R>
   <PP_RAB type="real"  size=" 602" columns="8">
    0.0100    0.0100    0.0100    0.0100    0.0100    0.0100    0.0100    0.0100
    0.0100    0.0100    0.0100    0.0100    0.0100    0.0100    0.0100    0.0100
    0.0100    0.0100    0.0100    0.0100    0.0100    0.0100    0.0100    0.0100
    0.0100    0.0100    0.0100    0.0100    0.0100    0.0100    0.0100    0.0100
    0.0100    0.0100    0.0100    0.0100    0.0100    0.0100    0.0100    0.0100
    0.0100    0.0100    0.0100    0.0100    0.0100    0.0100    0.0100    0.0100
    0.0100    0.0100    0.0100    0.0100    0.0100    0.0100    0.0100    0.0100
    0.0100    0.0100    0.0100    0.0100    0.0100    0.0100    0.0100    0.0100
    0.0100    0.0100    0.0100    0.0100    0.0100    0.0100    0.0100    0.0100
    0.0100    0.0100    0.0100    0.0100    0.0100    0.0100    0.0100    0.0100
    0.0100    0.0100    0.0100    0.0100    0.0100    0.0100    0.0100    0.0100
    0.0100    0.0100    0.0100    0.0100    0.0100    0.0100    0.0100    0.0100
    0.0100    0.0100    0.0100    0.0100    0.0100    0.0100    0.0100    0.0100
    0.0100    0.0100    0.0100    0.0100    0.0100    0.0100    0.0100    0.0100
    0.0100    0.0100    0.0100    0.0100    0.0100    0.0100    0.0100    0.0100
    0.0100    0.0100    0.0100    0.0100    0.0100    0.0100    0.0100    0.0100
    0.0100    0.0100    0.0100    0.0100    0.0100    0.0100    0.0100    0.0100
    0.0100    0.0100    0.0100    0.0100    0.0100    0.0100    0.0100    0.0100
    0.0100    0.0100    0.0100    0.0100    0.0100    0.0100    0.0100    0.0100
    0.0100    0.0100    0.0100    0.0100    0.0100    0.0100    0.0100    0.0100
    0.0100    0.0100    0.0100    0.0100    0.0100    0.0100    0.0100    0.0100
    0.0100    0.0100    0.0100    0.0100    0.0100    0.0100    0.0100    0.0100
    0.0100    0.0100    0.0100    0.0100    0.0100    0.0100    0.0100    0.0100
    0.0100    0.0100    0.0100    0.0100    0.0100    0.0100    0.0100    0.0100
    0.0100    0.0100    0.0100    0.0100    0.0100    0.0100    0.0100    0.0100
    0.0100    0.0100    0.0100    0.0100    0.0100    0.0100    0.0100    0.0100
    0.0100    0.0100    0.0100    0.0100    0.0100    0.0100    0.0100    0.0100
    0.0100    0.0100    0.0100    0.0100    0.0100    0.0100    0.0100    0.0100
    0.0100    0.0100    0.0100    0.0100    0.0100    0.0100    0.0100    0.0100
    0.0100    0.0100    0.0100    0.0100    0.0100    0.0100    0.0100    0.0100
    0.0100    0.0100    0.0100    0.0100    0.0100    0.0100    0.0100    0.0100
    0.0100    0.0100    0.0100    0.0100    0.0100    0.0100    0.0100    0.0100
    0.0100    0.0100    0.0100    0.0100    0.0100    0.0100    0.0100    0.0100
    0.0100    0.0100    0.0100    0.0100    0.0100    0.0100    0.0100    0.0100
    0.0100    0.0100    0.0100    0.0100    0.0100    0.0100    0.0100    0.0100
    0.0100    0.0100    0.0100    0.0100    0.0100    0.0100    0.0100    0.0100
    0.0100    0.0100    0.0100    0.0100    0.0100    0.0100    0.0100    0.0100
    0.0100    0.0100    0.0100    0.0100    0.0100    0.0100    0.0100    0.0100
    0.0100    0.0100    0.0100    0.0100    0.0100    0.0100    0.0100    0.0100
    0.0100    0.0100    0.0100    0.0100    0.0100    0.0100    0.0100    0.0100
    0.0100    0.0100    0.0100    0.0100    0.0100    0.0100    0.0100    0.0100
    0.0100    0.0100    0.0100    0.0100    0.0100    0.0100    0.0100    0.0100
    0.0100    0.0100    0.0100    0.0100    0.0100    0.0100    0.0100    0.0100
    0.0100    0.0100    0.0100    0.0100    0.0100    0.0100    0.0100    0.0100
    0.0100    0.0100    0.0100    0.0100    0.0100    0.0100    0.0100    0.0100
    0.0100    0.0100    0.0100    0.0100    0.0100    0.0100    0.0100    0.0100
    0.0100    0.0100    0.0100    0.0100    0.0100    0.0100    0.0100    0.0100
    0.0100    0.0100    0.0100    0.0100    0.0100    0.0100    0.0100    0.0100
    0.0100    0.0100    0.0100    0.0100    0.0100    0.0100    0.0100    0.0100
    0.0100    0.0100    0.0100    0.0100    0.0100    0.0100    0.0100    0.0100
    0.0100    0.0100    0.0100    0.0100    0.0100    0.0100    0.0100    0.0100
    0.0100    0.0100    0.0100    0.0100    0.0100    0.0100    0.0100    0.0100
    0.0100    0.0100    0.0100    0.0100    0.0100    0.0100    0.0100    0.0100
    0.0100    0.0100    0.0100    0.0100    0.0100    0.0100    0.0100    0.0100
    0.0100    0.0100    0.0100    0.0100    0.0100    0.0100    0.0100    0.0100
    0.0100    0.0100    0.0100    0.0100    0.0100    0.0100    0.0100    0.0100
    0.0100    0.0100    0.0100    0.0100    0.0100    0.0100    0.0100    0.0100
    0.0100    0.0100    0.0100    0.0100    0.0100    0.0100    0.0100    0.0100
    0.0100    0.0100    0.0100    0.0100    0.0100    0.0100    0.0100    0.0100
    0.0100    0.0100    0.0100    0.0100    0.0100    0.0100    0.0100    0.0100
    0.0100    0.0100    0.0100    0.0100    0.0100    0.0100    0.0100    0.0100
    0.0100    0.0100    0.0100    0.0100    0.0100    0.0100    0.0100    0.0100
    0.0100    0.0100    0.0100    0.0100    0.0100    0.0100    0.0100    0.0100
    0.0100    0.0100    0.0100    0.0100    0.0100    0.0100    0.0100    0.0100
    0.0100    0.0100    0.0100    0.0100    0.0100    0.0100    0.0100    0.0100
    0.0100    0.0100    0.0100    0.0100    0.0100    0.0100    0.0100    0.0100
    0.0100    0.0100    0.0100    0.0100    0.0100    0.0100    0.0100    0.0100
    0.0100    0.0100    0.0100    0.0100    0.0100    0.0100    0.0100    0.0100
    0.0100    0.0100    0.0100    0.0100    0.0100    0.0100    0.0100    0.0100
    0.0100    0.0100    0.0100    0.0100    0.0100    0.0100    0.0100    0.0100
    0.0100    0.0100    0.0100    0.0100    0.0100    0.0100    0.0100    0.0100
    0.0100    0.0100    0.0100    0.0100    0.0100    0.0100    0.0100    0.0100
    0.0100    0.0100    0.0100    0.0100    0.0100    0.0100    0.0100    0.0100
    0.0100    0.0100    0.0100    0.0100    0.0100    0.0100    0.0100    0.0100
    0.0100    0.0100    0.0100    0.0100    0.0100    0.0100    0.0100    0.0100
    0.0100    0.0100
   </PP_RAB>
 </PP_MESH>
  <PP_LOCAL type="real"  size=" 602" columns="4">
   -9.0590030552E+00   -9.0547643246E+00   -9.0419446507E+00   -9.0206506325E+00
   -8.9909888694E+00   -8.9531058486E+00   -8.9071853322E+00   -8.8534452619E+00
   -8.7921343221E+00   -8.7235283180E+00   -8.6479265180E+00   -8.5656480940E+00
   -8.4770287690E+00   -8.3824177522E+00   -8.2821750121E+00   -8.1766689121E+00
   -8.0662742051E+00   -7.9513703657E+00   -7.8323402218E+00   -7.7095688394E+00
   -7.5834426061E+00   -7.4543484624E+00   -7.3226732252E+00   -7.1888029598E+00
   -7.0531223559E+00   -6.9160140711E+00   -6.7778580212E+00   -6.6390305774E+00
   -6.4999036755E+00   -6.3608438082E+00   -6.2222108999E+00   -6.0843570588E+00
   -5.9476252200E+00   -5.8123476186E+00   -5.6788442125E+00   -5.5474209303E+00
   -5.4183678379E+00   -5.2919571469E+00   -5.1684412221E+00   -5.0480503731E+00
   -4.9309905647E+00   -4.8174411197E+00   -4.7075522494E+00   -4.6014425169E+00
   -4.4991962144E+00   -4.4008606569E+00   -4.3064433944E+00   -4.2159094251E+00
   -4.1291781732E+00   -4.0461202865E+00   -3.9665553386E+00   -3.8902691378E+00
   -3.8170540925E+00   -3.7467182652E+00   -3.6790837579E+00   -3.6139860028E+00
   -3.5512720798E+00   -3.4908003432E+00   -3.4324390160E+00   -3.3760659501E+00
   -3.3215673533E+00   -3.2688377304E+00   -3.2177788549E+00   -3.1682994239E+00
   -3.1203147031E+00   -3.0737458488E+00   -3.0285196331E+00   -2.9845681975E+00
   -2.9418285266E+00   -2.9002421782E+00   -2.8597550574E+00   -2.8203171633E+00
   -2.7818822353E+00   -2.7444075468E+00   -2.7078536693E+00   -2.6721842196E+00
   -2.6373657028E+00   -2.6033672456E+00   -2.5701603766E+00   -2.5377188301E+00
   -2.5060183430E+00   -2.4750364570E+00   -2.4447523255E+00   -2.4151465276E+00
   -2.3862008894E+00   -2.3578983132E+00   -2.3302226166E+00   -2.3031583821E+00
   -2.2766908179E+00   -2.2508056316E+00   -2.2254889176E+00   -2.2007270577E+00
   -2.1765066367E+00   -2.1528143733E+00   -2.1296370647E+00   -2.1069615463E+00
   -2.0847746658E+00   -2.0630632680E+00   -2.0418141965E+00   -2.0210143043E+00
   -2.0006504749E+00   -1.9807096515E+00   -1.9611788637E+00   -1.9420452877E+00
   -1.9232962859E+00   -1.9049194517E+00   -1.8869026583E+00   -1.8692340799E+00
   -1.8519022846E+00   -1.8348962746E+00   -1.8182054858E+00   -1.8018198140E+00
   -1.7857296276E+00   -1.7699258767E+00   -1.7543999994E+00   -1.7391440554E+00
   -1.7241510488E+00   -1.7094145659E+00   -1.6949280523E+00   -1.6806848045E+00
   -1.6666789762E+00   -1.6529046945E+00   -1.6393562043E+00   -1.6260280040E+00
   -1.6129147924E+00   -1.6000113950E+00   -1.5873127958E+00   -1.5748141928E+00
   -1.5625108831E+00   -1.5503983061E+00   -1.5384720957E+00   -1.5267279608E+00
   -1.5151617587E+00   -1.5037695049E+00   -1.4925472680E+00   -1.4814912920E+00
   -1.4705979213E+00   -1.4598635504E+00   -1.4492847716E+00   -1.4388582009E+00
   -1.4285805761E+00   -1.4184487553E+00   -1.4084596069E+00   -1.3986101889E+00
   -1.3888975614E+00   -1.3793189006E+00   -1.3698714685E+00   -1.3605525521E+00
   -1.3513595913E+00   -1.3422900042E+00   -1.3333413615E+00   -1.3245112373E+00
   -1.3157973006E+00   -1.3071972787E+00   -1.2987089340E+00   -1.2903301350E+00
   -1.2820587347E+00   -1.2738927283E+00   -1.2658300627E+00   -1.2578688387E+00
   -1.2500071104E+00   -1.2422430614E+00   -1.2345748506E+00   -1.2270007416E+00
   -1.2195189896E+00   -1.2121279353E+00   -1.2048259223E+00   -1.1976113663E+00
   -1.1904826915E+00   -1.1834383869E+00   -1.1764769500E+00   -1.1695969414E+00
   -1.1627969249E+00   -1.1560755313E+00   -1.1494313845E+00   -1.1428631840E+00
   -1.1363696079E+00   -1.1299494227E+00   -1.1236013557E+00   -1.1173242390E+00
   -1.1111168440E+00   -1.1049780614E+00   -1.0989067188E+00   -1.0929017456E+00
   -1.0869620329E+00   -1.0810865405E+00   -1.0752742238E+00   -1.0695240685E+00
   -1.0638350933E+00   -1.0582063065E+00   -1.0526367885E+00   -1.0471255676E+00
   -1.0416717739E+00   -1.0362744835E+00   -1.0309328426E+00   -1.0256459880E+00
   -1.0204130750E+00   -1.0152333016E+00   -1.0101058304E+00   -1.0050299084E+00
   -1.0000047333E+00   -9.9502956590E-01   -9.9010366061E-01   -9.8522627697E-01
   -9.8039672656E-01   -9.7561427479E-01   -9.7087826689E-01   -9.6618801502E-01
   -9.6154285713E-01   -9.5694216495E-01   -9.5238526817E-01   -9.4787157856E-01
   -9.4340046766E-01   -9.3897133475E-01   -9.3458360914E-01   -9.3023668089E-01
   -9.2593001331E-01   -9.2166303867E-01   -9.1743520266E-01   -9.1324598984E-01
   -9.0909484775E-01   -9.0498127765E-01   -9.0090477393E-01   -8.9686481597E-01
   -8.9286094090E-01   -8.8889265212E-01   -8.8495947641E-01   -8.8106096572E-01
   -8.7719663960E-01   -8.7336606773E-01   -8.6956881382E-01   -8.6580442022E-01
   -8.6207248871E-01   -8.5837259232E-01   -8.5470430933E-01   -8.5106725616E-01
   -8.4746102078E-01   -8.4388521394E-01   -8.4033946595E-01   -8.3682338005E-01
   -8.3333659577E-01   -8.2987875700E-01   -8.2644948250E-01   -8.2304843698E-01
   -8.1967527789E-01   -8.1632963954E-01   -8.1301120849E-01   -8.0971965558E-01
   -8.0645463139E-01   -8.0321584051E-01   -8.0000296701E-01   -7.9681567913E-01
   -7.9365369517E-01   -7.9051671391E-01   -7.8740441861E-01   -7.8431654116E-01
   -7.8125279510E-01   -7.7821287628E-01   -7.7519653006E-01   -7.7220348359E-01
   -7.6923344663E-01   -7.6628617431E-01   -7.6336140767E-01   -7.6045887120E-01
   -7.5757832676E-01   -7.5471952959E-01   -7.5188221901E-01   -7.4906616147E-01
   -7.4627112647E-01   -7.4349686827E-01   -7.4074315595E-01   -7.3800977317E-01
   -7.3529648933E-01   -7.3260307441E-01   -7.2992932597E-01   -7.2727502871E-01
   -7.2463995217E-01   -7.2202390736E-01   -7.1942668934E-01   -7.1684808111E-01
   -7.1428789171E-01   -7.1174593061E-01   -7.0922199597E-01   -7.0671589199E-01
   -7.0422744260E-01   -7.0175646149E-01   -6.9930274713E-01   -6.9686613708E-01
   -6.9444645376E-01   -6.9204351030E-01   -6.8965713636E-01   -6.8728716930E-01
   -6.8493343787E-01   -6.8259576245E-01   -6.8027399467E-01   -6.7796797310E-01
   -6.7567752693E-01   -6.7340250278E-01   -6.7114275258E-01   -6.6889812129E-01
   -6.6666844347E-01   -6.6445358546E-01   -6.6225340050E-01   -6.6006773475E-01
   -6.5789644435E-01   -6.5573939684E-01   -6.5359645231E-01   -6.5146745909E-01
   -6.4935229244E-01   -6.4725082107E-01   -6.4516290898E-01   -6.4308841545E-01
   -6.4102722429E-01   -6.3897920830E-01   -6.3694423398E-01   -6.3492217594E-01
   -6.3291292014E-01   -6.3091634534E-01   -6.2893232112E-01   -6.2696073531E-01
   -6.2500147627E-01   -6.2305442842E-01   -6.2111946498E-01   -6.1919648488E-01
   -6.1728537929E-01   -6.1538603745E-01   -6.1349833829E-01   -6.1162218827E-01
   -6.0975748231E-01   -6.0790411354E-01   -6.0606196906E-01   -6.0423095892E-01
   -6.0241098293E-01   -6.0060193850E-01   -5.9880371928E-01   -5.9701623916E-01
   -5.9523940264E-01   -5.9347311177E-01   -5.9171726515E-01   -5.8997178086E-01
   -5.8823656783E-01   -5.8651153311E-01   -5.8479657877E-01   -5.8309162735E-01
   -5.8139659203E-01   -5.7971138518E-01   -5.7803591096E-01   -5.7637009663E-01
   -5.7471385943E-01   -5.7306711656E-01   -5.7142977536E-01   -5.6980176572E-01
   -5.6818300946E-01   -5.6657342768E-01   -5.6497293360E-01   -5.6338145603E-01
   -5.6179892252E-01   -5.6022525782E-01   -5.5866038140E-01   -5.5710421982E-01
   -5.5555670653E-01   -5.5401776979E-01   -5.5248733565E-01   -5.5096532738E-01
   -5.4945168445E-01   -5.4794633847E-01   -5.4644922103E-01   -5.4496025523E-01
   -5.4347938263E-01   -5.4200653930E-01   -5.4054166003E-01   -5.3908467492E-01
   -5.3763551979E-01   -5.3619413753E-01   -5.3476046597E-01   -5.3333444263E-01
   -5.3191599681E-01   -5.3050507813E-01   -5.2910162730E-01   -5.2770558506E-01
   -5.2631688716E-01   -5.2493547636E-01   -5.2356130051E-01   -5.2219430309E-01
   -5.2083442759E-01   -5.1948160886E-01   -5.1813580138E-01   -5.1679695144E-01
   -5.1546500516E-01   -5.1413990535E-01   -5.1282159680E-01   -5.1151003367E-01
   -5.1020516460E-01   -5.0890693821E-01   -5.0761529706E-01   -5.0633019495E-01
   -5.0505158547E-01   -5.0377941963E-01   -5.0251364846E-01   -5.0125421487E-01
   -5.0000108011E-01   -4.9875419758E-01   -4.9751352060E-01   -4.9627900070E-01
   -4.9505058698E-01   -4.9382824131E-01   -4.9261191919E-01   -4.9140157609E-01
   -4.9019716442E-01   -4.8899863850E-01   -4.8780596087E-01   -4.8661908908E-01
   -4.8543798070E-01   -4.8426258943E-01   -4.8309287355E-01   -4.8192879665E-01
   -4.8077031826E-01   -4.7961739791E-01   -4.7846999100E-01   -4.7732805861E-01
   -4.7619156572E-01   -4.7506047375E-01   -4.7393474414E-01   -4.7281433431E-01
   -4.7169920702E-01   -4.7058932905E-01   -4.6948466361E-01   -4.6838517392E-01
   -4.6729081982E-01   -4.6620156468E-01   -4.6511737740E-01   -4.6403822292E-01
   -4.6296406616E-01   -4.6189486970E-01   -4.6083059654E-01   -4.5977121804E-01
   -4.5871670076E-01   -4.5766701126E-01   -4.5662211517E-01   -4.5558197422E-01
   -4.5454656249E-01   -4.5351584811E-01   -4.5248979920E-01   -4.5146838387E-01
   -4.5045156432E-01   -4.4943931506E-01   -4.4843160652E-01   -4.4742840832E-01
   -4.4642969005E-01   -4.4543541756E-01   -4.4444556207E-01   -4.4346009753E-01
   -4.4247899496E-01   -4.4150222540E-01   -4.4052975865E-01   -4.3956156191E-01
   -4.3859761281E-01   -4.3763788372E-01   -4.3668234703E-01   -4.3573097510E-01
   -4.3478373564E-01   -4.3384060493E-01   -4.3290155831E-01   -4.3196656945E-01
   -4.3103561201E-01   -4.3010865824E-01   -4.2918567870E-01   -4.2826665304E-01
   -4.2735155616E-01   -4.2644036293E-01   -4.2553304826E-01   -4.2462958310E-01
   -4.2372994486E-01   -4.2283411173E-01   -4.2194205979E-01   -4.2105376509E-01
   -4.2016920366E-01   -4.1928834581E-01   -4.1841117446E-01   -4.1753766681E-01
   -4.1666780002E-01   -4.1580155127E-01   -4.1493889603E-01   -4.1407980939E-01
   -4.1322427366E-01   -4.1237226709E-01   -4.1152376791E-01   -4.1067875436E-01
   -4.0983720177E-01   -4.0899908902E-01   -4.0816439812E-01   -4.0733310834E-01
   -4.0650519891E-01   -4.0568064909E-01   -4.0485943449E-01   -4.0404153675E-01
   -4.0322693796E-01   -4.0241561834E-01   -4.0160755812E-01   -4.0080273751E-01
   -4.0000113275E-01   -3.9920272730E-01   -3.9840750370E-01   -3.9761544309E-01
   -3.9682652663E-01   -3.9604073544E-01   -3.9525804673E-01   -3.9447844490E-01
   -3.9370191328E-01   -3.9292843390E-01   -3.9215798878E-01   -3.9139055994E-01
   -3.9062612586E-01   -3.8986467104E-01   -3.8910617994E-01   -3.8835063544E-01
   -3.8759802038E-01   -3.8684831762E-01   -3.8610150725E-01   -3.8535757306E-01
   -3.8461650096E-01   -3.8387827461E-01   -3.8314287768E-01   -3.8241029380E-01
   -3.8168050496E-01   -3.8095349353E-01   -3.8022924712E-01   -3.7950775018E-01
   -3.7878898711E-01   -3.7807294233E-01   -3.7735959997E-01   -3.7664894033E-01
   -3.7594095298E-01   -3.7523562307E-01   -3.7453293574E-01   -3.7383287614E-01
   -3.7313542942E-01   -3.7244057744E-01   -3.7174830767E-01   -3.7105860737E-01
   -3.7037146236E-01   -3.6968685849E-01   -3.6900478158E-01   -3.6832521628E-01
   -3.6764814642E-01   -3.6697356186E-01   -3.6630144910E-01   -3.6563179462E-01
   -3.6496458493E-01   -3.6429980652E-01   -3.6363744255E-01   -3.6297748218E-01
   -3.6231991368E-01   -3.6166472415E-01   -3.6101190073E-01   -3.6036143054E-01
   -3.5971330000E-01   -3.5906749340E-01   -3.5842400208E-01   -3.5778281378E-01
   -3.5714391621E-01   -3.5650729711E-01   -3.5587294420E-01   -3.5524084311E-01
   -3.5461098174E-01   -3.5398335058E-01   -3.5335793791E-01   -3.5273473204E-01
   -3.5211372126E-01   -3.5149489388E-01   -3.5087823511E-01   -3.5026373563E-01
   -3.4965138536E-01   -3.4904117315E-01   -3.4843308784E-01   -3.4782711827E-01
   -3.4722325329E-01   -3.4662147808E-01   -3.4602178522E-01   -3.4542416445E-01
   -3.4482860513E-01   -3.4423509663E-01   -3.4364362831E-01   -3.4305418953E-01
   -3.4246676575E-01   -3.4188135069E-01   -3.4129793424E-01   -3.4071650625E-01
   -3.4013705657E-01   -3.3955957507E-01   -3.3898405161E-01   -3.3841047222E-01
   -3.3783883103E-01   -3.3726911838E-01   -3.3670132460E-01   -3.3613544002E-01
   -3.3557145497E-01   -3.3500935979E-01   -3.3444914135E-01   -3.3389079353E-01
   -3.3333430742E-01   -3.3277967379E-01
  </PP_LOCAL>
 <PP_NONLOCAL>
   <PP_BETA.1
       type="real"
       size=" 602"
       columns="4"
       index="1"
       angular_momentum="0"
       cutoff_radius_index=" 118"
       cutoff_radius="    1.1700000000E+00" >
    0.0000000000E+00   -2.6156722603E-01   -5.1965376948E-01   -7.7083271780E-01
   -1.0117837854E+00   -1.2393443603E+00   -1.4505578769E+00   -1.6427186962E+00
   -1.8134127406E+00   -1.9605532034E+00   -2.0824107422E+00   -2.1776376634E+00
   -2.2452857118E+00   -2.2848171964E+00   -2.2961092943E+00   -2.2794515085E+00
   -2.2355363643E+00   -2.1654435575E+00   -2.0706178823E+00   -1.9528413661E+00
   -1.8142001868E+00   -1.6570469049E+00   -1.4839588600E+00   -1.2976933778E+00
   -1.1011407628E+00   -8.9727554041E-01   -6.8910771710E-01   -4.7963356534E-01
   -2.7178827713E-01   -6.8400255733E-02    1.2785173242E-01    3.1447787437E-01
    4.8921217441E-01    6.5004363408E-01    7.9524066245E-01    9.2337130863E-01