<UPF version="2.0.1">
  <PP_INFO>

 This pseudopotential file has been produced using the code
 ONCVPSP  (Optimized Norm-Conservinng Vanderbilt PSeudopotential)
 scalar-relativistic version 2.1.1, 03/26/2014 by D. R. Hamann
 The code is available through a link at URL www.mat-simresearch.com.
 Documentation with the package provides a full discription of the
 input data below.


 While it is not required under the terms of the GNU GPL, it is
 suggested that you cite D. R. Hamann, Phys. Rev. B 88, 085117 (2013)
 in any publication using these pseudopotentials.


 Copyright 2015 The Regents of the University of California
 
 This work is licensed under the Creative Commons Attribution-ShareAlike 
 4.0 International License. To view a copy of this license, visit 
 http://creativecommons.org/licenses/by-sa/4.0/ or send a letter to 
 Creative Commons, PO Box 1866, Mountain View, CA 94042, USA.
 
 This pseudopotential is part of the Schlipf-Gygi norm-conserving 
 pseudopotential library. Its construction parameters were tuned to 
 reproduce materials of a training set with very high accuracy and 
 should be suitable as a general purpose pseudopotential to treat a 
 variety of different compounds. For details of the construction and 
 testing of the pseudopotential please refer to:
 
 [insert reference to paper here]
 
 We kindly ask that you include this reference in all publications 
 associated to this pseudopotential.


    <PP_INPUTFILE>
# ATOM AND REFERENCE CONFIGURATION
# atsym  z    nc    nv    iexc   psfile
  He  2.00     0     1     4      upf
#
#   n    l    f        energy (Ha)
    1    0    2.00
#
# PSEUDOPOTENTIAL AND OPTIMIZATION
# lmax
    0
#
#   l,   rc,     ep,   ncon, nbas, qcut
    0   1.99006  -0.57931    5    8   7.17231
#
# LOCAL POTENTIAL
# lloc, lpopt,  rc(5),   dvloc0
    4    5   0.89489      0.00000
#
# VANDERBILT-KLEINMAN-BYLANDER PROJECTORs
# l, nproj, debl
    0    2   1.34022
#
# MODEL CORE CHARGE
# icmod, fcfact
    0   0.00000
#
# LOG DERIVATIVE ANALYSIS
# epsh1, epsh2, depsh
   -5.00    3.00    0.02
#
# OUTPUT GRID
# rlmax, drl
    6.00    0.01
#
# TEST CONFIGURATIONS
# ncnf
    0
# nvcnf
#   n    l    f
    </PP_INPUTFILE>
  </PP_INFO>
  <!--                               -->
  <!-- END OF HUMAN READABLE SECTION -->
  <!--                               -->
    <PP_HEADER
       generated="Generated using ONCVPSP code by D. R. Hamann"
       author="Martin Schlipf and Francois Gygi"
       date="150105"
       comment=""
       element="He"
       pseudo_type="NC"
       relativistic="scalar"
       is_ultrasoft="F"
       is_paw="F"
       is_coulomb="F"
       has_so="F"
       has_wfc="F"
       has_gipaw="F"
       core_correction="F"
       functional="PBE"
       z_valence="    2.00"
       total_psenergy="  -2.79060354686E+00"
       rho_cutoff="   6.01000000000E+00"
       l_max="0"
       l_local="-1"
       mesh_size="   602"
       number_of_wfc="0"
       number_of_proj="2"/>
 <PP_MESH>
   <PP_R type="real"  size=" 602" columns="8">
    0.0000    0.0100    0.0200    0.0300    0.0400    0.0500    0.0600    0.0700
    0.0800    0.0900    0.1000    0.1100    0.1200    0.1300    0.1400    0.1500
    0.1600    0.1700    0.1800    0.1900    0.2000    0.2100    0.2200    0.2300
    0.2400    0.2500    0.2600    0.2700    0.2800    0.2900    0.3000    0.3100
    0.3200    0.3300    0.3400    0.3500    0.3600    0.3700    0.3800    0.3900
    0.4000    0.4100    0.4200    0.4300    0.4400    0.4500    0.4600    0.4700
    0.4800    0.4900    0.5000    0.5100    0.5200    0.5300    0.5400    0.5500
    0.5600    0.5700    0.5800    0.5900    0.6000    0.6100    0.6200    0.6300
    0.6400    0.6500    0.6600    0.6700    0.6800    0.6900    0.7000    0.7100
    0.7200    0.7300    0.7400    0.7500    0.7600    0.7700    0.7800    0.7900
    0.8000    0.8100    0.8200    0.8300    0.8400    0.8500    0.8600    0.8700
    0.8800    0.8900    0.9000    0.9100    0.9200    0.9300    0.9400    0.9500
    0.9600    0.9700    0.9800    0.9900    1.0000    1.0100    1.0200    1.0300
    1.0400    1.0500    1.0600    1.0700    1.0800    1.0900    1.1000    1.1100
    1.1200    1.1300    1.1400    1.1500    1.1600    1.1700    1.1800    1.1900
    1.2000    1.2100    1.2200    1.2300    1.2400    1.2500    1.2600    1.2700
    1.2800    1.2900    1.3000    1.3100    1.3200    1.3300    1.3400    1.3500
    1.3600    1.3700    1.3800    1.3900    1.4000    1.4100    1.4200    1.4300
    1.4400    1.4500    1.4600    1.4700    1.4800    1.4900    1.5000    1.5100
    1.5200    1.5300    1.5400    1.5500    1.5600    1.5700    1.5800    1.5900
    1.6000    1.6100    1.6200    1.6300    1.6400    1.6500    1.6600    1.6700
    1.6800    1.6900    1.7000    1.7100    1.7200    1.7300    1.7400    1.7500
    1.7600    1.7700    1.7800    1.7900    1.8000    1.8100    1.8200    1.8300
    1.8400    1.8500    1.8600    1.8700    1.8800    1.8900    1.9000    1.9100
    1.9200    1.9300    1.9400    1.9500    1.9600    1.9700    1.9800    1.9900
    2.0000    2.0100    2.0200    2.0300    2.0400    2.0500    2.0600    2.0700
    2.0800    2.0900    2.1000    2.1100    2.1200    2.1300    2.1400    2.1500
    2.1600    2.1700    2.1800    2.1900    2.2000    2.2100    2.2200    2.2300
    2.2400    2.2500    2.2600    2.2700    2.2800    2.2900    2.3000    2.3100
    2.3200    2.3300    2.3400    2.3500    2.3600    2.3700    2.3800    2.3900
    2.4000    2.4100    2.4200    2.4300    2.4400    2.4500    2.4600    2.4700
    2.4800    2.4900    2.5000    2.5100    2.5200    2.5300    2.5400    2.5500
    2.5600    2.5700    2.5800    2.5900    2.6000    2.6100    2.6200    2.6300
    2.6400    2.6500    2.6600    2.6700    2.6800    2.6900    2.7000    2.7100
    2.7200    2.7300    2.7400    2.7500    2.7600    2.7700    2.7800    2.7900
    2.8000    2.8100    2.8200    2.8300    2.8400    2.8500    2.8600    2.8700
    2.8800    2.8900    2.9000    2.9100    2.9200    2.9300    2.9400    2.9500
    2.9600    2.9700    2.9800    2.9900    3.0000    3.0100    3.0200    3.0300
    3.0400    3.0500    3.0600    3.0700    3.0800    3.0900    3.1000    3.1100
    3.1200    3.1300    3.1400    3.1500    3.1600    3.1700    3.1800    3.1900
    3.2000    3.2100    3.2200    3.2300    3.2400    3.2500    3.2600    3.2700
    3.2800    3.2900    3.3000    3.3100    3.3200    3.3300    3.3400    3.3500
    3.3600    3.3700    3.3800    3.3900    3.4000    3.4100    3.4200    3.4300
    3.4400    3.4500    3.4600    3.4700    3.4800    3.4900    3.5000    3.5100
    3.5200    3.5300    3.5400    3.5500    3.5600    3.5700    3.5800    3.5900
    3.6000    3.6100    3.6200    3.6300    3.6400    3.6500    3.6600    3.6700
    3.6800    3.6900    3.7000    3.7100    3.7200    3.7300    3.7400    3.7500
    3.7600    3.7700    3.7800    3.7900    3.8000    3.8100    3.8200    3.8300
    3.8400    3.8500    3.8600    3.8700    3.8800    3.8900    3.9000    3.9100
    3.9200    3.9300    3.9400    3.9500    3.9600    3.9700    3.9800    3.9900
    4.0000    4.0100    4.0200    4.0300    4.0400    4.0500    4.0600    4.0700
    4.0800    4.0900    4.1000    4.1100    4.1200    4.1300    4.1400    4.1500
    4.1600    4.1700    4.1800    4.1900    4.2000    4.2100    4.2200    4.2300
    4.2400    4.2500    4.2600    4.2700    4.2800    4.2900    4.3000    4.3100
    4.3200    4.3300    4.3400    4.3500    4.3600    4.3700    4.3800    4.3900
    4.4000    4.4100    4.4200    4.4300    4.4400    4.4500    4.4600    4.4700
    4.4800    4.4900    4.5000    4.5100    4.5200    4.5300    4.5400    4.5500
    4.5600    4.5700    4.5800    4.5900    4.6000    4.6100    4.6200    4.6300
    4.6400    4.6500    4.6600    4.6700    4.6800    4.6900    4.7000    4.7100
    4.7200    4.7300    4.7400    4.7500    4.7600    4.7700    4.7800    4.7900
    4.8000    4.8100    4.8200    4.8300    4.8400    4.8500    4.8600    4.8700
    4.8800    4.8900    4.9000    4.9100    4.9200    4.9300    4.9400    4.9500
    4.9600    4.9700    4.9800    4.9900    5.0000    5.0100    5.0200    5.0300
    5.0400    5.0500    5.0600    5.0700    5.0800    5.0900    5.1000    5.1100
    5.1200    5.1300    5.1400    5.1500    5.1600    5.1700    5.1800    5.1900
    5.2000    5.2100    5.2200    5.2300    5.2400    5.2500    5.2600    5.2700
    5.2800    5.2900    5.3000    5.3100    5.3200    5.3300    5.3400    5.3500
    5.3600    5.3700    5.3800    5.3900    5.4000    5.4100    5.4200    5.4300
    5.4400    5.4500    5.4600    5.4700    5.4800    5.4900    5.5000    5.5100
    5.5200    5.5300    5.5400    5.5500    5.5600    5.5700    5.5800    5.5900
    5.6000    5.6100    5.6200    5.6300    5.6400    5.6500    5.6600    5.6700
    5.6800    5.6900    5.7000    5.7100    5.7200    5.7300    5.7400    5.7500
    5.7600    5.7700    5.7800    5.7900    5.8000    5.8100    5.8200    5.8300
    5.8400    5.8500    5.8600    5.8700    5.8800    5.8900    5.9000    5.9100
    5.9200    5.9300    5.9400    5.9500    5.9600    5.9700    5.9800    5.9900
    6.0000    6.0100
   </PP_R>
   <PP_RAB type="real"  size=" 602" columns="8">
    0.0100    0.0100    0.0100    0.0100    0.0100    0.0100    0.0100    0.0100
    0.0100    0.0100    0.0100    0.0100    0.0100    0.0100    0.0100    0.0100
    0.0100    0.0100    0.0100    0.0100    0.0100    0.0100    0.0100    0.0100
    0.0100    0.0100    0.0100    0.0100    0.0100    0.0100    0.0100    0.0100
    0.0100    0.0100    0.0100    0.0100    0.0100    0.0100    0.0100    0.0100
    0.0100    0.0100    0.0100    0.0100    0.0100    0.0100    0.0100    0.0100
    0.0100    0.0100    0.0100    0.0100    0.0100    0.0100    0.0100    0.0100
    0.0100    0.0100    0.0100    0.0100    0.0100    0.0100    0.0100    0.0100
    0.0100    0.0100    0.0100    0.0100    0.0100    0.0100    0.0100    0.0100
    0.0100    0.0100    0.0100    0.0100    0.0100    0.0100    0.0100    0.0100
    0.0100    0.0100    0.0100    0.0100    0.0100    0.0100    0.0100    0.0100
    0.0100    0.0100    0.0100    0.0100    0.0100    0.0100    0.0100    0.0100
    0.0100    0.0100    0.0100    0.0100    0.0100    0.0100    0.0100    0.0100
    0.0100    0.0100    0.0100    0.0100    0.0100    0.0100    0.0100    0.0100
    0.0100    0.0100    0.0100    0.0100    0.0100    0.0100    0.0100    0.0100
    0.0100    0.0100    0.0100    0.0100    0.0100    0.0100    0.0100    0.0100
    0.0100    0.0100    0.0100    0.0100    0.0100    0.0100    0.0100    0.0100
    0.0100    0.0100    0.0100    0.0100    0.0100    0.0100    0.0100    0.0100
    0.0100    0.0100    0.0100    0.0100    0.0100    0.0100    0.0100    0.0100
    0.0100    0.0100    0.0100    0.0100    0.0100    0.0100    0.0100    0.0100
    0.0100    0.0100    0.0100    0.0100    0.0100    0.0100    0.0100    0.0100
    0.0100    0.0100    0.0100    0.0100    0.0100    0.0100    0.0100    0.0100
    0.0100    0.0100    0.0100    0.0100    0.0100    0.0100    0.0100    0.0100
    0.0100    0.0100    0.0100    0.0100    0.0100    0.0100    0.0100    0.0100
    0.0100    0.0100    0.0100    0.0100    0.0100    0.0100    0.0100    0.0100
    0.0100    0.0100    0.0100    0.0100    0.0100    0.0100    0.0100    0.0100
    0.0100    0.0100    0.0100    0.0100    0.0100    0.0100    0.0100    0.0100
    0.0100    0.0100    0.0100    0.0100    0.0100    0.0100    0.0100    0.0100
    0.0100    0.0100    0.0100    0.0100    0.0100    0.0100    0.0100    0.0100
    0.0100    0.0100    0.0100    0.0100    0.0100    0.0100    0.0100    0.0100
    0.0100    0.0100    0.0100    0.0100    0.0100    0.0100    0.0100    0.0100
    0.0100    0.0100    0.0100    0.0100    0.0100    0.0100    0.0100    0.0100
    0.0100    0.0100    0.0100    0.0100    0.0100    0.0100    0.0100    0.0100
    0.0100    0.0100    0.0100    0.0100    0.0100    0.0100    0.0100    0.0100
    0.0100    0.0100    0.0100    0.0100    0.0100    0.0100    0.0100    0.0100
    0.0100    0.0100    0.0100    0.0100    0.0100    0.0100    0.0100    0.0100
    0.0100    0.0100    0.0100    0.0100    0.0100    0.0100    0.0100    0.0100
    0.0100    0.0100    0.0100    0.0100    0.0100    0.0100    0.0100    0.0100
    0.0100    0.0100    0.0100    0.0100    0.0100    0.0100    0.0100    0.0100
    0.0100    0.0100    0.0100    0.0100    0.0100    0.0100    0.0100    0.0100
    0.0100    0.0100    0.0100    0.0100    0.0100    0.0100    0.0100    0.0100
    0.0100    0.0100    0.0100    0.0100    0.0100    0.0100    0.0100    0.0100
    0.0100    0.0100    0.0100    0.0100    0.0100    0.0100    0.0100    0.0100
    0.0100    0.0100    0.0100    0.0100    0.0100    0.0100    0.0100    0.0100
    0.0100    0.0100    0.0100    0.0100    0.0100    0.0100    0.0100    0.0100
    0.0100    0.0100    0.0100    0.0100    0.0100    0.0100    0.0100    0.0100
    0.0100    0.0100    0.0100    0.0100    0.0100    0.0100    0.0100    0.0100
    0.0100    0.0100    0.0100    0.0100    0.0100    0.0100    0.0100    0.0100
    0.0100    0.0100    0.0100    0.0100    0.0100    0.0100    0.0100    0.0100
    0.0100    0.0100    0.0100    0.0100    0.0100    0.0100    0.0100    0.0100
    0.0100    0.0100    0.0100    0.0100    0.0100    0.0100    0.0100    0.0100
    0.0100    0.0100    0.0100    0.0100    0.0100    0.0100    0.0100    0.0100
    0.0100    0.0100    0.0100    0.0100    0.0100    0.0100    0.0100    0.0100
    0.0100    0.0100    0.0100    0.0100    0.0100    0.0100    0.0100    0.0100
    0.0100    0.0100    0.0100    0.0100    0.0100    0.0100    0.0100    0.0100
    0.0100    0.0100    0.0100    0.0100    0.0100    0.0100    0.0100    0.0100
    0.0100    0.0100    0.0100    0.0100    0.0100    0.0100    0.0100    0.0100
    0.0100    0.0100    0.0100    0.0100    0.0100    0.0100    0.0100    0.0100
    0.0100    0.0100    0.0100    0.0100    0.0100    0.0100    0.0100    0.0100
    0.0100    0.0100    0.0100    0.0100    0.0100    0.0100    0.0100    0.0100
    0.0100    0.0100    0.0100    0.0100    0.0100    0.0100    0.0100    0.0100
    0.0100    0.0100    0.0100    0.0100    0.0100    0.0100    0.0100    0.0100
    0.0100    0.0100    0.0100    0.0100    0.0100    0.0100    0.0100    0.0100
    0.0100    0.0100    0.0100    0.0100    0.0100    0.0100    0.0100    0.0100
    0.0100    0.0100    0.0100    0.0100    0.0100    0.0100    0.0100    0.0100
    0.0100    0.0100    0.0100    0.0100    0.0100    0.0100    0.0100    0.0100
    0.0100    0.0100    0.0100    0.0100    0.0100    0.0100    0.0100    0.0100
    0.0100    0.0100    0.0100    0.0100    0.0100    0.0100    0.0100    0.0100
    0.0100    0.0100    0.0100    0.0100    0.0100    0.0100    0.0100    0.0100
    0.0100    0.0100    0.0100    0.0100    0.0100    0.0100    0.0100    0.0100
    0.0100    0.0100    0.0100    0.0100    0.0100    0.0100    0.0100    0.0100
    0.0100    0.0100    0.0100    0.0100    0.0100    0.0100    0.0100    0.0100
    0.0100    0.0100    0.0100    0.0100    0.0100    0.0100    0.0100    0.0100
    0.0100    0.0100    0.0100    0.0100    0.0100    0.0100    0.0100    0.0100
    0.0100    0.0100    0.0100    0.0100    0.0100    0.0100    0.0100    0.0100
    0.0100    0.0100
   </PP_RAB>
 </PP_MESH>
  <PP_LOCAL type="real"  size=" 602" columns="4">
   -9.7050960413E+00   -9.7037076014E+00   -9.6995321546E+00   -9.6925799060E+00
   -9.6828610608E+00   -9.6703898355E+00   -9.6551843877E+00   -9.6372667287E+00
   -9.6166626188E+00   -9.5934014483E+00   -9.5675161054E+00   -9.5390428331E+00
   -9.5080210767E+00   -9.4744933252E+00   -9.4385049468E+00   -9.4001040222E+00
   -9.3593411768E+00   -9.3162694133E+00   -9.2709439468E+00   -9.2234220433E+00
   -9.1737628627E+00   -9.1220273088E+00   -9.0682778832E+00   -9.0125785489E+00
   -8.9549945985E+00   -8.8955925323E+00   -8.8344399410E+00   -8.7716053981E+00
   -8.7071583567E+00   -8.6411690546E+00   -8.5737084240E+00   -8.5048480073E+00
   -8.4346598766E+00   -8.3632165589E+00   -8.2905909633E+00   -8.2168563108E+00
   -8.1420860682E+00   -8.0663538812E+00   -7.9897335103E+00   -7.9122987662E+00
   -7.8341234456E+00   -7.7552812665E+00   -7.6758458029E+00   -7.5958904176E+00
   -7.5154881945E+00   -7.4347118685E+00   -7.3536337537E+00   -7.2723256693E+00
   -7.1908588666E+00   -7.1093039434E+00   -7.0277307676E+00   -6.9462083969E+00
   -6.8648049904E+00   -6.7835877099E+00   -6.7026226568E+00   -6.6219747411E+00
   -6.5417076235E+00   -6.4618835883E+00   -6.3825634695E+00   -6.3038065166E+00
   -6.2256703480E+00   -6.1482107582E+00   -6.0714817194E+00   -5.9955351823E+00
   -5.9204209998E+00   -5.8461868709E+00   -5.7728781406E+00   -5.7005377289E+00
   -5.6292060458E+00   -5.5589209096E+00   -5.4897173076E+00   -5.4216274047E+00
   -5.3546804126E+00   -5.2889024796E+00   -5.2243166081E+00   -5.1609425063E+00
   -5.0987964828E+00   -5.0378913991E+00   -4.9782365480E+00   -4.9198375582E+00
   -4.8626962992E+00   -4.8068107878E+00   -4.7521750959E+00   -4.6987792585E+00
   -4.6466091819E+00   -4.5956465519E+00   -4.5458687403E+00   -4.4972487111E+00
   -4.4497549235E+00   -4.4033512085E+00   -4.3579966127E+00   -4.3136472208E+00
   -4.2702594585E+00   -4.2277918671E+00   -4.1862050110E+00   -4.1454614065E+00
   -4.1055254170E+00   -4.0663633742E+00   -4.0279433809E+00   -3.9902352984E+00
   -3.9532106993E+00   -3.9168428138E+00   -3.8811064574E+00   -3.8459779454E+00
   -3.8114352360E+00   -3.7774576361E+00   -3.7440258139E+00   -3.7111217235E+00
   -3.6787284738E+00   -3.6468305543E+00   -3.6154134527E+00   -3.5844636858E+00
   -3.5539686522E+00   -3.5239168244E+00   -3.4942974813E+00   -3.4651006429E+00
   -3.4363169534E+00   -3.4079379214E+00   -3.3799555715E+00   -3.3523624227E+00
   -3.3251515206E+00   -3.2983164455E+00   -3.2718511022E+00   -3.2457497038E+00
   -3.2200069333E+00   -3.1946176687E+00   -3.1695769847E+00   -3.1448802966E+00
   -3.1205231394E+00   -3.0965011699E+00   -3.0728102746E+00   -3.0494463935E+00
   -3.0264055547E+00   -3.0036839055E+00   -2.9812776121E+00   -2.9591829015E+00
   -2.9373960310E+00   -2.9159132665E+00   -2.8947308888E+00   -2.8738451638E+00
   -2.8532523587E+00   -2.8329486939E+00   -2.8129303865E+00   -2.7931935930E+00
   -2.7737344303E+00   -2.7545489867E+00   -2.7356332468E+00   -2.7169832080E+00
   -2.6985947250E+00   -2.6804636527E+00   -2.6625857446E+00   -2.6449566934E+00
   -2.6275721515E+00   -2.6104276565E+00   -2.5935187615E+00   -2.5768408765E+00
   -2.5603894494E+00   -2.5441598121E+00   -2.5281473207E+00   -2.5123472688E+00
   -2.4967549643E+00   -2.4813656966E+00   -2.4661747835E+00   -2.4511775509E+00
   -2.4363693903E+00   -2.4217457122E+00   -2.4073020460E+00   -2.3930339403E+00
   -2.3789371215E+00   -2.3650073346E+00   -2.3512405509E+00   -2.3376327719E+00
   -2.3241802473E+00   -2.3108792927E+00   -2.2977264531E+00   -2.2847184089E+00
   -2.2718520016E+00   -2.2591243135E+00   -2.2465324709E+00   -2.2340739761E+00
   -2.2217462217E+00   -2.2095471211E+00   -2.1974743153E+00   -2.1855260758E+00
   -2.1737003216E+00   -2.1619955517E+00   -2.1504100271E+00   -2.1389423431E+00
   -2.1275910661E+00   -2.1163548593E+00   -2.1052324967E+00   -2.0942227064E+00
   -2.0833243473E+00   -2.0725362268E+00   -2.0618571751E+00   -2.0512860487E+00
   -2.0408216150E+00   -2.0304626599E+00   -2.0202079352E+00   -2.0100560283E+00
   -2.0000056754E+00   -1.9900553321E+00   -1.9802035257E+00   -1.9704488115E+00
   -1.9607897397E+00   -1.9512248390E+00   -1.9417528240E+00   -1.9323723080E+00
   -1.9230820044E+00   -1.9138806149E+00   -1.9047668347E+00   -1.8957394711E+00
   -1.8867972472E+00   -1.8779389999E+00   -1.8691635529E+00   -1.8604697132E+00
   -1.8518564000E+00   -1.8433224552E+00   -1.8348668076E+00   -1.8264884026E+00
   -1.8181861311E+00   -1.8099590189E+00   -1.8018060223E+00   -1.7937261359E+00
   -1.7857184165E+00   -1.7777818529E+00   -1.7699155347E+00   -1.7621185414E+00
   -1.7543899117E+00   -1.7467288041E+00   -1.7391343158E+00   -1.7316055654E+00
   -1.7241417409E+00   -1.7167419700E+00   -1.7094054438E+00   -1.7021313778E+00
   -1.6949189315E+00   -1.6877673600E+00   -1.6806759059E+00   -1.6736437611E+00
   -1.6666702367E+00   -1.6597545957E+00   -1.6528960826E+00   -1.6460940374E+00
   -1.6393477520E+00   -1.6326565180E+00   -1.6260197030E+00   -1.6194366285E+00
   -1.6129066269E+00   -1.6064290932E+00   -1.6000033787E+00   -1.5936288505E+00
   -1.5873049315E+00   -1.5810310023E+00   -1.5748064599E+00   -1.5686307544E+00
   -1.5625032963E+00   -1.5564235071E+00   -1.5503908644E+00   -1.5444048083E+00
   -1.5384647804E+00   -1.5325702855E+00   -1.5267207937E+00   -1.5209157622E+00
   -1.5151547228E+00   -1.5094371757E+00   -1.5037625899E+00   -1.4981305238E+00
   -1.4925405020E+00   -1.4869920192E+00   -1.4814846428E+00   -1.4760179251E+00
   -1.4705913904E+00   -1.4652046076E+00   -1.4598571580E+00   -1.4545485961E+00
   -1.4492784886E+00   -1.4440464453E+00   -1.4388520513E+00   -1.4336948690E+00
   -1.4285745352E+00   -1.4234906573E+00   -1.4184428179E+00   -1.4134306534E+00
   -1.4084537979E+00   -1.4035118646E+00   -1.3986044773E+00   -1.3937312991E+00
   -1.3888919731E+00   -1.3840861132E+00   -1.3793134054E+00   -1.3745735109E+00
   -1.3698660736E+00   -1.3651907607E+00   -1.3605472633E+00   -1.3559352569E+00
   -1.3513543880E+00   -1.3468043760E+00   -1.3422849112E+00   -1.3377956705E+00
   -1.3333363487E+00   -1.3289066667E+00   -1.3245063295E+00   -1.3201350176E+00
   -1.3157924686E+00   -1.3114784051E+00   -1.3071925384E+00   -1.3029345770E+00
   -1.2987042733E+00   -1.2945013593E+00   -1.2903255507E+00   -1.2861765908E+00
   -1.2820542356E+00   -1.2779582296E+00   -1.2738882941E+00   -1.2698442029E+00
   -1.2658257160E+00   -1.2618325864E+00   -1.2578645521E+00   -1.2539214030E+00
   -1.2500029070E+00   -1.2461088235E+00   -1.2422389137E+00   -1.2383929738E+00
   -1.2345707821E+00   -1.2307721054E+00   -1.2269967247E+00   -1.2232444426E+00
   -1.2195150477E+00   -1.2158083147E+00   -1.2121240412E+00   -1.2084620365E+00
   -1.2048220991E+00   -1.2012040127E+00   -1.1976075875E+00   -1.1940326405E+00
   -1.1904789799E+00   -1.1869463985E+00   -1.1834347163E+00   -1.1799437588E+00
   -1.1764733429E+00   -1.1730232719E+00   -1.1695933721E+00   -1.1661834782E+00
   -1.1627934158E+00   -1.1594229986E+00   -1.1560720570E+00   -1.1527404353E+00
   -1.1494279672E+00   -1.1461344779E+00   -1.1428597987E+00   -1.1396037844E+00
   -1.1363662765E+00   -1.1331471119E+00   -1.1299461209E+00   -1.1267631689E+00
   -1.1235981048E+00   -1.1204507773E+00   -1.1173210155E+00   -1.1142086937E+00
   -1.1111136684E+00   -1.1080357955E+00   -1.1049749168E+00   -1.1019308999E+00
   -1.0989036138E+00   -1.0958929211E+00   -1.0928986773E+00   -1.0899207410E+00
   -1.0869589941E+00   -1.0840133055E+00   -1.0810835441E+00   -1.0781695607E+00
   -1.0752712473E+00   -1.0723884796E+00   -1.0695211328E+00   -1.0666690719E+00
   -1.0638321755E+00   -1.0610103338E+00   -1.0582034276E+00   -1.0554113372E+00
   -1.0526339264E+00   -1.0498710992E+00   -1.0471227420E+00   -1.0443887411E+00
   -1.0416689743E+00   -1.0389633296E+00   -1.0362717081E+00   -1.0335940015E+00
   -1.0309301017E+00   -1.0282798849E+00   -1.0256432602E+00   -1.0230201266E+00
   -1.0204103807E+00   -1.0178139157E+00   -1.0152306194E+00   -1.0126604070E+00
   -1.0101031799E+00   -1.0075588396E+00   -1.0050272792E+00   -1.0025084026E+00
   -1.0000021242E+00   -9.9750835035E-01   -9.9502698705E-01   -9.9255792847E-01
   -9.9010109136E-01   -9.8765639074E-01   -9.8522373711E-01   -9.8280304097E-01
   -9.8039419851E-01   -9.7799713669E-01   -9.7561177175E-01   -9.7323801837E-01
   -9.7087579093E-01   -9.6852498938E-01   -9.6618554739E-01   -9.6385738364E-01
   -9.6154041676E-01   -9.5923456423E-01   -9.5693973219E-01   -9.5465585699E-01
   -9.5238286108E-01   -9.5012066689E-01   -9.4786919577E-01   -9.4562835782E-01
   -9.4339809273E-01   -9.4117832656E-01   -9.3896898537E-01   -9.3676999508E-01
   -9.3458126768E-01   -9.3240274683E-01   -9.3023436204E-01   -9.2807604281E-01
   -9.2592771865E-01   -9.2378930654E-01   -9.2166074966E-01   -9.1954198249E-01
   -9.1743293780E-01   -9.1533354838E-01   -9.1324373725E-01   -9.1116344484E-01
   -9.0909261133E-01   -9.0703117263E-01   -9.0497906467E-01   -9.0293621712E-01
   -9.0090256592E-01   -8.9887805748E-01   -8.9686263072E-01   -8.9485622452E-01
   -8.9285877588E-01   -8.9087021466E-01   -8.8889049392E-01   -8.8691955540E-01
   -8.8495734086E-01   -8.8300379205E-01   -8.8105884077E-01   -8.7912243766E-01
   -8.7719453028E-01   -8.7527506309E-01   -8.7336398055E-01   -8.7146122289E-01
   -8.6956673109E-01   -8.6768046072E-01   -8.6580235882E-01   -8.6393237247E-01
   -8.6207044870E-01   -8.6021652439E-01   -8.5837055654E-01   -8.5653249689E-01
   -8.5470229494E-01   -8.5287990024E-01   -8.5106525916E-01   -8.4925831589E-01
   -8.4745903132E-01   -8.4566735731E-01   -8.4388324573E-01   -8.4210664846E-01
   -8.4033751002E-01   -8.3857578640E-01   -8.3682143627E-01   -8.3507441375E-01
   -8.3333467296E-01   -8.3160216801E-01   -8.2987684256E-01   -8.2815866205E-01
   -8.2644758377E-01   -8.2474356397E-01   -8.2304655889E-01   -8.2135652320E-01
   -8.1967340535E-01   -8.1799717327E-01   -8.1632778524E-01   -8.1466519955E-01
   -8.1300937450E-01   -8.1136026505E-01   -8.0971782561E-01   -8.0808202415E-01
   -8.0645282091E-01   -8.0483017612E-01   -8.0321405001E-01   -8.0160439863E-01
   -8.0000118043E-01   -7.9840436414E-01   -7.9681391185E-01   -7.9522978563E-01
   -7.9365194759E-01   -7.9208035554E-01   -7.9051497018E-01   -7.8895576168E-01
   -7.8740269390E-01   -7.8585573069E-01   -7.8431483590E-01   -7.8277996980E-01
   -7.8125109364E-01   -7.7972817969E-01   -7.7821119349E-01   -7.7670010058E-01
   -7.7519486649E-01   -7.7369545453E-01   -7.7220182498E-01   -7.7071395278E-01
   -7.6923180508E-01   -7.6775534902E-01   -7.6628455174E-01   -7.6481938021E-01
   -7.6335979224E-01   -7.6190576601E-01   -7.6045727017E-01   -7.5901427342E-01
   -7.5757674442E-01   -7.5614465185E-01   -7.5471795729E-01   -7.5329663504E-01
   -7.5188065775E-01   -7.5046999555E-01   -7.4906461857E-01   -7.4766449694E-01
   -7.4626959713E-01   -7.4487988773E-01   -7.4349534599E-01   -7.4211594343E-01
   -7.4074165158E-01   -7.3937244197E-01   -7.3800828611E-01   -7.3664914681E-01
   -7.3529500523E-01   -7.3394583455E-01   -7.3260160763E-01   -7.3126229732E-01
   -7.2992787646E-01   -7.2859831380E-01   -7.2727358201E-01   -7.2595366004E-01
   -7.2463852201E-01   -7.2332814206E-01   -7.2202249428E-01   -7.2072155279E-01
   -7.1942528413E-01   -7.1813366992E-01   -7.1684668660E-01   -7.1556430948E-01
   -7.1428651388E-01   -7.1301327513E-01   -7.1174456670E-01   -7.1048035933E-01
   -7.0922063614E-01   -7.0796537360E-01   -7.0671454820E-01   -7.0546813639E-01
   -7.0422611465E-01   -7.0298845551E-01   -7.0175513547E-01   -7.0052613651E-01
   -6.9930143620E-01   -6.9808101210E-01   -6.9686484178E-01   -6.9565290282E-01
   -6.9444516748E-01   -6.9324161642E-01   -6.9204223112E-01   -6.9084699020E-01
   -6.8965587225E-01   -6.8846885591E-01   -6.8728591978E-01   -6.8610703655E-01
   -6.8493218946E-01   -6.8376136013E-01   -6.8259452819E-01   -6.8143167323E-01
   -6.8027277487E-01   -6.7911781272E-01   -6.7796676051E-01   -6.7681960255E-01
   -6.7567632128E-01   -6.7453689725E-01   -6.7340131103E-01   -6.7226954318E-01
   -6.7114157426E-01   -6.7001737961E-01   -6.6889694324E-01   -6.6778024898E-01
   -6.6666727831E-01   -6.6555801268E-01
  </PP_LOCAL>
 <PP_NONLOCAL>
   <PP_BETA.1
       type="real"
       size=" 602"
       columns="4"
       index="1"
       angular_momentum="0"
       cutoff_radius_index=" 204"
       cutoff_radius="    2.0300000000E+00" >
    0.0000000000E+00    6.0671355020E-02    1.2125912073E-01    1.8167965947E-01
    2.4184923870E-01    3.0168398825E-01    3.6109986292E-01    4.2001261241E-01
    4.7833776020E-01    5.3599059283E-01    5.9288616136E-01    6.4893929607E-01
    7.0406463601E-01    7.5817667423E-01    8.1118981984E-01    8.6301847766E-01
    9.1357714607E-01    9.6278053364E-01    1.0105436947E+00    1.0567821838E+00
    1.1014122298E+00    1.1443509278E+00    1.1855164497E+00    1.2248282725E+00
    1.2622074227E+00    1.2975767372E+00    1.3308611370E+00    1.3619879161E+00
    1.3908870393E+00    1.4174914515E+00    1.4417373940E+00    1.4635647267E+00
    1.4829172526E+00    1.4997430475E+00    1.5139947853E+00    1.5256300577E+00
    1.5346116978E+00    1.5409080852E+00    1.5444934400E+00    1.5453481191E+00
    1.5434588778E+00    1.5388191223E+00    1.5314291421E+00    1.5212963185E+00
    1.5084353082E+00    1.4928682005E+00    1.4746246448E+00    1.4537419479E+00
    1.4302651326E+00    1.4042469878E+00    1.3757480484E+00    1.3448365542E+00
    1.3115883821E+00    1.2760869359E+00    1.2384229754E+00    1.1986944502E+00
    1.1570062527E+00    1.1134699629E+00    1.0682035427E+00    1.0213309892E+00
    9.7298198687E-01    9.2329144183E-01    8.7239912174E-01    8.2044910440E-01
    7.6758929770E-01    7.1397098045E-01    6.5974813257E-01    6.0507689958E-01
    5.5011503246E-01    4.9502132506E-01    4.3995476365E-01    3.8507407161E-01
    3.3053701936E-01    2.7649975610E-01    2.2311618914E-01    1.7053722979E-01
    1.1891011750E-01    6.8377861610E-02    1.9078544595E-02   -2.8855320735E-02
   -7.5297421815E-02   -1.2012826234E-01   -1.6323576158E-01   -2.0451583506E-01
   -2.4387295478E-01   -2.8122068752E-01   -3.1648220978E-01   -3.4959079826E-01
   -3.8049029499E-01   -4.0913555177E-01   -4.3549286091E-01   -4.5953987638E-01
   -4.8126495241E-01   -5.0066654785E-01   -5.1775293900E-01   -5.3254189766E-01
   -5.4506021842E-01   -5.5534369329E-01   -5.6343632499E-01   -5.6938997362E-01
   -5.7326389179E-01   -5.7512422827E-01   -5.7504351394E-01   -5.7310018605E-01
   -5.6937798758E-01   -5.6396535464E-01   -5.5695489557E-01   -5.4844285402E-01