<UPF version="2.0.1">
  <PP_INFO>

 This pseudopotential file has been produced using the code
 ONCVPSP  (Optimized Norm-Conservinng Vanderbilt PSeudopotential)
 fully-relativistic version 2.1.1, 03/26/2014 by D. R. Hamann
 The code is available through a link at URL www.mat-simresearch.com.
 Documentation with the package provides a full description of the
 input data below.

 While it is not required under the terms of the GNU GPL, it is
 suggested that you cite D. R. Hamann, Phys. Rev. B 88, 085117 (2013)
 in any publication using these pseudopotentials.

 -----

 This pseudopotential was produced with the SG15 1.0 and/or 1.1
 parameter sets, the Schlipf-Gygi norm-conserving pseudopotential
 library. For details of the construction and testing of the
 pseudopotential please refer to:

 M. Schlipf, F. Gygi, Comp. Phys. Comm. 196, 36 (2015)
 http://dx.doi.org/10.1016/j.cpc.2015.05.011

 The above authors kindly ask that you include this reference in all
 publications associated to this pseudopotential.

 Please note this fully-relativistic version does not employ the
 above self-consistent procedure at the fully-relativistic level.

 -----

 This pseudopotential was produced by Peter Scherpelz for the purpose
 of performing GW calculations with spin-orbit-coupling. Please see
 the publication:

 P. Scherpelz, M. Govoni, I. Hamada, G. Galli; J. Chem. Theory Comput. (2016)
 http://dx.doi.org/10.1021/acs.jctc.6b00114

 If you use these pseudopotentials in your work, we also kindly ask
 that you cite the above publication.

 -----

 This work is licensed under the Creative Commons Attribution-ShareAlike 
 4.0 International License. To view a copy of this license, visit 
 http://creativecommons.org/licenses/by-sa/4.0/ or send a letter to 
 Creative Commons, PO Box 1866, Mountain View, CA 94042, USA.

 The SG15 library is Copyright 2015 The Regents of the University of
 California.  Further modifications of these files are Copyright 2016
 Peter Scherpelz.

    <PP_INPUTFILE>
# ATOM AND REFERENCE CONFIGURATION
# atsym  z    nc    nv    iexc   psfile
  I 53.00     8     3     4      upf
#
#   n    l    f        energy (Ha)
    1    0    2.00
    2    0    2.00
    2    1    6.00
    3    0    2.00
    3    1    6.00
    3    2   10.00
    4    0    2.00
    4    1    6.00
    4    2   10.00
    5    0    2.00
    5    1    5.00
#
# PSEUDOPOTENTIAL AND OPTIMIZATION
# lmax
    2
#
#   l,   rc,     ep,   ncon, nbas, qcut
    0    2.39   -0.64    5    8    3.07
    1    3.33   -0.25    5    8    3.94
    2    3.18   -1.82    5    8    8.34
#
# LOCAL POTENTIAL
# lloc, lpopt,  rc(5),   dvloc0
    4    5      1.67       0.00
#
# VANDERBILT-KLEINMAN-BYLANDER PROJECTORs
# l, nproj, debl
    0    2    1.6007
    1    2    1.1215
    2    2    1.8493
#
# MODEL CORE CHARGE
# icmod, fcfact
    0    0.00
#
# LOG DERIVATIVE ANALYSIS
# epsh1, epsh2, depsh
   -5.00    3.00    0.02
#
# OUTPUT GRID
# rlmax, drl
    6.00    0.01
#
# TEST CONFIGURATIONS
# ncnf
    0
# nvcnf
#   n    l    f
    </PP_INPUTFILE>
  </PP_INFO>
  <!--                               -->
  <!-- END OF HUMAN READABLE SECTION -->
  <!--                               -->
    <PP_HEADER
       generated="Generated using ONCVPSP code by D. R. Hamann"
       author="anonymous"
       date="150703"
       comment=""
       element="I "
       pseudo_type="NC"
       relativistic="full"
       is_ultrasoft="F"
       is_paw="F"
       is_coulomb="F"
       has_so="T"
       has_wfc="F"
       has_gipaw="F"
       core_correction="F"
       functional="PBE"
       z_valence="   17.00"
       total_psenergy="  -9.92989969396E+01"
       rho_cutoff="   6.01000000000E+00"
       l_max="2"
       l_local="-1"
       mesh_size="   602"
       number_of_wfc="0"
       number_of_proj="10"/>
 <PP_MESH>
   <PP_R type="real"  size=" 602" columns="8">
    0.0000    0.0100    0.0200    0.0300    0.0400    0.0500    0.0600    0.0700
    0.0800    0.0900    0.1000    0.1100    0.1200    0.1300    0.1400    0.1500
    0.1600    0.1700    0.1800    0.1900    0.2000    0.2100    0.2200    0.2300
    0.2400    0.2500    0.2600    0.2700    0.2800    0.2900    0.3000    0.3100
    0.3200    0.3300    0.3400    0.3500    0.3600    0.3700    0.3800    0.3900
    0.4000    0.4100    0.4200    0.4300    0.4400    0.4500    0.4600    0.4700
    0.4800    0.4900    0.5000    0.5100    0.5200    0.5300    0.5400    0.5500
    0.5600    0.5700    0.5800    0.5900    0.6000    0.6100    0.6200    0.6300
    0.6400    0.6500    0.6600    0.6700    0.6800    0.6900    0.7000    0.7100
    0.7200    0.7300    0.7400    0.7500    0.7600    0.7700    0.7800    0.7900
    0.8000    0.8100    0.8200    0.8300    0.8400    0.8500    0.8600    0.8700
    0.8800    0.8900    0.9000    0.9100    0.9200    0.9300    0.9400    0.9500
    0.9600    0.9700    0.9800    0.9900    1.0000    1.0100    1.0200    1.0300
    1.0400    1.0500    1.0600    1.0700    1.0800    1.0900    1.1000    1.1100
    1.1200    1.1300    1.1400    1.1500    1.1600    1.1700    1.1800    1.1900
    1.2000    1.2100    1.2200    1.2300    1.2400    1.2500    1.2600    1.2700
    1.2800    1.2900    1.3000    1.3100    1.3200    1.3300    1.3400    1.3500
    1.3600    1.3700    1.3800    1.3900    1.4000    1.4100    1.4200    1.4300
    1.4400    1.4500    1.4600    1.4700    1.4800    1.4900    1.5000    1.5100
    1.5200    1.5300    1.5400    1.5500    1.5600    1.5700    1.5800    1.5900
    1.6000    1.6100    1.6200    1.6300    1.6400    1.6500    1.6600    1.6700
    1.6800    1.6900    1.7000    1.7100    1.7200    1.7300    1.7400    1.7500
    1.7600    1.7700    1.7800    1.7900    1.8000    1.8100    1.8200    1.8300
    1.8400    1.8500    1.8600    1.8700    1.8800    1.8900    1.9000    1.9100
    1.9200    1.9300    1.9400    1.9500    1.9600    1.9700    1.9800    1.9900
    2.0000    2.0100    2.0200    2.0300    2.0400    2.0500    2.0600    2.0700
    2.0800    2.0900    2.1000    2.1100    2.1200    2.1300    2.1400    2.1500
    2.1600    2.1700    2.1800    2.1900    2.2000    2.2100    2.2200    2.2300
    2.2400    2.2500    2.2600    2.2700    2.2800    2.2900    2.3000    2.3100
    2.3200    2.3300    2.3400    2.3500    2.3600    2.3700    2.3800    2.3900
    2.4000    2.4100    2.4200    2.4300    2.4400    2.4500    2.4600    2.4700
    2.4800    2.4900    2.5000    2.5100    2.5200    2.5300    2.5400    2.5500
    2.5600    2.5700    2.5800    2.5900    2.6000    2.6100    2.6200    2.6300
    2.6400    2.6500    2.6600    2.6700    2.6800    2.6900    2.7000    2.7100
    2.7200    2.7300    2.7400    2.7500    2.7600    2.7700    2.7800    2.7900
    2.8000    2.8100    2.8200    2.8300    2.8400    2.8500    2.8600    2.8700
    2.8800    2.8900    2.9000    2.9100    2.9200    2.9300    2.9400    2.9500
    2.9600    2.9700    2.9800    2.9900    3.0000    3.0100    3.0200    3.0300
    3.0400    3.0500    3.0600    3.0700    3.0800    3.0900    3.1000    3.1100
    3.1200    3.1300    3.1400    3.1500    3.1600    3.1700    3.1800    3.1900
    3.2000    3.2100    3.2200    3.2300    3.2400    3.2500    3.2600    3.2700
    3.2800    3.2900    3.3000    3.3100    3.3200    3.3300    3.3400    3.3500
    3.3600    3.3700    3.3800    3.3900    3.4000    3.4100    3.4200    3.4300
    3.4400    3.4500    3.4600    3.4700    3.4800    3.4900    3.5000    3.5100
    3.5200    3.5300    3.5400    3.5500    3.5600    3.5700    3.5800    3.5900
    3.6000    3.6100    3.6200    3.6300    3.6400    3.6500    3.6600    3.6700
    3.6800    3.6900    3.7000    3.7100    3.7200    3.7300    3.7400    3.7500
    3.7600    3.7700    3.7800    3.7900    3.8000    3.8100    3.8200    3.8300
    3.8400    3.8500    3.8600    3.8700    3.8800    3.8900    3.9000    3.9100
    3.9200    3.9300    3.9400    3.9500    3.9600    3.9700    3.9800    3.9900
    4.0000    4.0100    4.0200    4.0300    4.0400    4.0500    4.0600    4.0700
    4.0800    4.0900    4.1000    4.1100    4.1200    4.1300    4.1400    4.1500
    4.1600    4.1700    4.1800    4.1900    4.2000    4.2100    4.2200    4.2300
    4.2400    4.2500    4.2600    4.2700    4.2800    4.2900    4.3000    4.3100
    4.3200    4.3300    4.3400    4.3500    4.3600    4.3700    4.3800    4.3900
    4.4000    4.4100    4.4200    4.4300    4.4400    4.4500    4.4600    4.4700
    4.4800    4.4900    4.5000    4.5100    4.5200    4.5300    4.5400    4.5500
    4.5600    4.5700    4.5800    4.5900    4.6000    4.6100    4.6200    4.6300
    4.6400    4.6500    4.6600    4.6700    4.6800    4.6900    4.7000    4.7100
    4.7200    4.7300    4.7400    4.7500    4.7600    4.7700    4.7800    4.7900
    4.8000    4.8100    4.8200    4.8300    4.8400    4.8500    4.8600    4.8700
    4.8800    4.8900    4.9000    4.9100    4.9200    4.9300    4.9400    4.9500
    4.9600    4.9700    4.9800    4.9900    5.0000    5.0100    5.0200    5.0300
    5.0400    5.0500    5.0600    5.0700    5.0800    5.0900    5.1000    5.1100
    5.1200    5.1300    5.1400    5.1500    5.1600    5.1700    5.1800    5.1900
    5.2000    5.2100    5.2200    5.2300    5.2400    5.2500    5.2600    5.2700
    5.2800    5.2900    5.3000    5.3100    5.3200    5.3300    5.3400    5.3500
    5.3600    5.3700    5.3800    5.3900    5.4000    5.4100    5.4200    5.4300
    5.4400    5.4500    5.4600    5.4700    5.4800    5.4900    5.5000    5.5100
    5.5200    5.5300    5.5400    5.5500    5.5600    5.5700    5.5800    5.5900
    5.6000    5.6100    5.6200    5.6300    5.6400    5.6500    5.6600    5.6700
    5.6800    5.6900    5.7000    5.7100    5.7200    5.7300    5.7400    5.7500
    5.7600    5.7700    5.7800    5.7900    5.8000    5.8100    5.8200    5.8300
    5.8400    5.8500    5.8600    5.8700    5.8800    5.8900    5.9000    5.9100
    5.9200    5.9300    5.9400    5.9500    5.9600    5.9700    5.9800    5.9900
    6.0000    6.0100
   </PP_R>
   <PP_RAB type="real"  size=" 602" columns="8">
    0.0100    0.0100    0.0100    0.0100    0.0100    0.0100    0.0100    0.0100
    0.0100    0.0100    0.0100    0.0100    0.0100    0.0100    0.0100    0.0100
    0.0100    0.0100    0.0100    0.0100    0.0100    0.0100    0.0100    0.0100
    0.0100    0.0100    0.0100    0.0100    0.0100    0.0100    0.0100    0.0100
    0.0100    0.0100    0.0100    0.0100    0.0100    0.0100    0.0100    0.0100
    0.0100    0.0100    0.0100    0.0100    0.0100    0.0100    0.0100    0.0100
    0.0100    0.0100    0.0100    0.0100    0.0100    0.0100    0.0100    0.0100
    0.0100    0.0100    0.0100    0.0100    0.0100    0.0100    0.0100    0.0100
    0.0100    0.0100    0.0100    0.0100    0.0100    0.0100    0.0100    0.0100
    0.0100    0.0100    0.0100    0.0100    0.0100    0.0100    0.0100    0.0100
    0.0100    0.0100    0.0100    0.0100    0.0100    0.0100    0.0100    0.0100
    0.0100    0.0100    0.0100    0.0100    0.0100    0.0100    0.0100    0.0100
    0.0100    0.0100    0.0100    0.0100    0.0100    0.0100    0.0100    0.0100
    0.0100    0.0100    0.0100    0.0100    0.0100    0.0100    0.0100    0.0100
    0.0100    0.0100    0.0100    0.0100    0.0100    0.0100    0.0100    0.0100
    0.0100    0.0100    0.0100    0.0100    0.0100    0.0100    0.0100    0.0100
    0.0100    0.0100    0.0100    0.0100    0.0100    0.0100    0.0100    0.0100
    0.0100    0.0100    0.0100    0.0100    0.0100    0.0100    0.0100    0.0100
    0.0100    0.0100    0.0100    0.0100    0.0100    0.0100    0.0100    0.0100
    0.0100    0.0100    0.0100    0.0100    0.0100    0.0100    0.0100    0.0100
    0.0100    0.0100    0.0100    0.0100    0.0100    0.0100    0.0100    0.0100
    0.0100    0.0100    0.0100    0.0100    0.0100    0.0100    0.0100    0.0100
    0.0100    0.0100    0.0100    0.0100    0.0100    0.0100    0.0100    0.0100
    0.0100    0.0100    0.0100    0.0100    0.0100    0.0100    0.0100    0.0100
    0.0100    0.0100    0.0100    0.0100    0.0100    0.0100    0.0100    0.0100
    0.0100    0.0100    0.0100    0.0100    0.0100    0.0100    0.0100    0.0100
    0.0100    0.0100    0.0100    0.0100    0.0100    0.0100    0.0100    0.0100
    0.0100    0.0100    0.0100    0.0100    0.0100    0.0100    0.0100    0.0100
    0.0100    0.0100    0.0100    0.0100    0.0100    0.0100    0.0100    0.0100
    0.0100    0.0100    0.0100    0.0100    0.0100    0.0100    0.0100    0.0100
    0.0100    0.0100    0.0100    0.0100    0.0100    0.0100    0.0100    0.0100
    0.0100    0.0100    0.0100    0.0100    0.0100    0.0100    0.0100    0.0100
    0.0100    0.0100    0.0100    0.0100    0.0100    0.0100    0.0100    0.0100
    0.0100    0.0100    0.0100    0.0100    0.0100    0.0100    0.0100    0.0100
    0.0100    0.0100    0.0100    0.0100    0.0100    0.0100    0.0100    0.0100
    0.0100    0.0100    0.0100    0.0100    0.0100    0.0100    0.0100    0.0100
    0.0100    0.0100    0.0100    0.0100    0.0100    0.0100    0.0100    0.0100
    0.0100    0.0100    0.0100    0.0100    0.0100    0.0100    0.0100    0.0100
    0.0100    0.0100    0.0100    0.0100    0.0100    0.0100    0.0100    0.0100
    0.0100    0.0100    0.0100    0.0100    0.0100    0.0100    0.0100    0.0100
    0.0100    0.0100    0.0100    0.0100    0.0100    0.0100    0.0100    0.0100
    0.0100    0.0100    0.0100    0.0100    0.0100    0.0100    0.0100    0.0100
    0.0100    0.0100    0.0100    0.0100    0.0100    0.0100    0.0100    0.0100
    0.0100    0.0100    0.0100    0.0100    0.0100    0.0100    0.0100    0.0100
    0.0100    0.0100    0.0100    0.0100    0.0100    0.0100    0.0100    0.0100
    0.0100    0.0100    0.0100    0.0100    0.0100    0.0100    0.0100    0.0100
    0.0100    0.0100    0.0100    0.0100    0.0100    0.0100    0.0100    0.0100
    0.0100    0.0100    0.0100    0.0100    0.0100    0.0100    0.0100    0.0100
    0.0100    0.0100    0.0100    0.0100    0.0100    0.0100    0.0100    0.0100
    0.0100    0.0100    0.0100    0.0100    0.0100    0.0100    0.0100    0.0100
    0.0100    0.0100    0.0100    0.0100    0.0100    0.0100    0.0100    0.0100
    0.0100    0.0100    0.0100    0.0100    0.0100    0.0100    0.0100    0.0100
    0.0100    0.0100    0.0100    0.0100    0.0100    0.0100    0.0100    0.0100
    0.0100    0.0100    0.0100    0.0100    0.0100    0.0100    0.0100    0.0100
    0.0100    0.0100    0.0100    0.0100    0.0100    0.0100    0.0100    0.0100
    0.0100    0.0100    0.0100    0.0100    0.0100    0.0100    0.0100    0.0100
    0.0100    0.0100    0.0100    0.0100    0.0100    0.0100    0.0100    0.0100
    0.0100    0.0100    0.0100    0.0100    0.0100    0.0100    0.0100    0.0100
    0.0100    0.0100    0.0100    0.0100    0.0100    0.0100    0.0100    0.0100
    0.0100    0.0100    0.0100    0.0100    0.0100    0.0100    0.0100    0.0100
    0.0100    0.0100    0.0100    0.0100    0.0100    0.0100    0.0100    0.0100
    0.0100    0.0100    0.0100    0.0100    0.0100    0.0100    0.0100    0.0100
    0.0100    0.0100    0.0100    0.0100    0.0100    0.0100    0.0100    0.0100
    0.0100    0.0100    0.0100    0.0100    0.0100    0.0100    0.0100    0.0100
    0.0100    0.0100    0.0100    0.0100    0.0100    0.0100    0.0100    0.0100
    0.0100    0.0100    0.0100    0.0100    0.0100    0.0100    0.0100    0.0100
    0.0100    0.0100    0.0100    0.0100    0.0100    0.0100    0.0100    0.0100
    0.0100    0.0100    0.0100    0.0100    0.0100    0.0100    0.0100    0.0100
    0.0100    0.0100    0.0100    0.0100    0.0100    0.0100    0.0100    0.0100
    0.0100    0.0100    0.0100    0.0100    0.0100    0.0100    0.0100    0.0100
    0.0100    0.0100    0.0100    0.0100    0.0100    0.0100    0.0100    0.0100
    0.0100    0.0100    0.0100    0.0100    0.0100    0.0100    0.0100    0.0100
    0.0100    0.0100    0.0100    0.0100    0.0100    0.0100    0.0100    0.0100
    0.0100    0.0100    0.0100    0.0100    0.0100    0.0100    0.0100    0.0100
    0.0100    0.0100    0.0100    0.0100    0.0100    0.0100    0.0100    0.0100
    0.0100    0.0100
   </PP_RAB>
 </PP_MESH>
  <PP_LOCAL type="real"  size=" 602" columns="4">
   -4.1576768894E+01   -4.1568939295E+01   -4.1842814179E+01   -4.2342605314E+01
   -4.3012524466E+01   -4.3585658732E+01   -4.3679011424E+01   -4.3185516560E+01
   -4.2433661774E+01   -4.1804121537E+01   -4.1422969298E+01   -4.1233632814E+01
   -4.1146942647E+01   -4.1102321270E+01   -4.1069551326E+01   -4.1036488320E+01
   -4.0999441536E+01   -4.0958066310E+01   -4.0913110565E+01   -4.0865549558E+01
   -4.0816301595E+01   -4.0766158290E+01   -4.0715780528E+01   -4.0665706069E+01
   -4.0616352138E+01   -4.0568010375E+01   -4.0520836081E+01   -4.0474834672E+01
   -4.0429848796E+01   -4.0385549389E+01   -4.0341433220E+01   -4.0296829427E+01
   -4.0250916292E+01   -4.0202749142E+01   -4.0151298889E+01   -4.0095498880E+01
   -4.0034297859E+01   -3.9966715523E+01   -3.9891895381E+01   -3.9809151590E+01
   -3.9718006437E+01   -3.9618214056E+01   -3.9509769241E+01   -3.9392901250E+01
   -3.9268053055E+01   -3.9135848375E+01   -3.8997049740E+01   -3.8852511843E+01
   -3.8703133744E+01   -3.8549813922E+01   -3.8393412242E+01   -3.8234720408E+01
   -3.8074439785E+01   -3.7913172294E+01   -3.7751416155E+01   -3.7589569157E+01
   -3.7427939101E+01   -3.7266751929E+01   -3.7106167691E+01   -3.6946289939E+01
   -3.6787179561E+01   -3.6628863696E+01   -3.6471344375E+01   -3.6314605831E+01
   -3.6158618741E+01   -3.6003344621E+01   -3.5848738204E+01   -3.5694748751E+01
   -3.5541320956E+01   -3.5388395077E+01   -3.5235906683E+01   -3.5083785911E+01
   -3.4931956814E+01   -3.4780336644E+01   -3.4628835159E+01   -3.4477354156E+01
   -3.4325787323E+01   -3.4174020406E+01   -3.4021931790E+01   -3.3869393824E+01
   -3.3716274422E+01   -3.3562439233E+01   -3.3407754245E+01   -3.3252088751E+01
   -3.3095318538E+01   -3.2937329157E+01   -3.2778019107E+01   -3.2617302759E+01
   -3.2455112856E+01   -3.2291402454E+01   -3.2126146197E+01   -3.1959340869E+01
   -3.1791005208E+01   -3.1621178831E+01   -3.1449921128E+01   -3.1277309342E+01
   -3.1103435604E+01   -3.0928404514E+01   -3.0752330377E+01   -3.0575334485E+01
   -3.0397542537E+01   -3.0219082374E+01   -3.0040081837E+01   -2.9860666735E+01
   -2.9680959592E+01   -2.9501078560E+01   -2.9321136831E+01   -2.9141241867E+01
   -2.8961494479E+01   -2.8781989684E+01   -2.8602816497E+01   -2.8424058655E+01
   -2.8245793103E+01   -2.8068091939E+01   -2.7891022508E+01   -2.7714648184E+01
   -2.7539026980E+01   -2.7364213630E+01   -2.7190259688E+01   -2.7017213531E+01
   -2.6845119986E+01   -2.6674021705E+01   -2.6503959373E+01   -2.6334970393E+01
   -2.6167090496E+01   -2.6000353876E+01   -2.5834792050E+01   -2.5670434848E+01
   -2.5507310905E+01   -2.5345446297E+01   -2.5184865507E+01   -2.5025592053E+01
   -2.4867646581E+01   -2.4711048546E+01   -2.4555816217E+01   -2.4401964889E+01
   -2.4249509180E+01   -2.4098461629E+01   -2.3948832483E+01   -2.3800631587E+01
   -2.3653865470E+01   -2.3508539975E+01   -2.3364659229E+01   -2.3222224825E+01
   -2.3081238367E+01   -2.2941697977E+01   -2.2803601718E+01   -2.2666945514E+01
   -2.2531723767E+01   -2.2397930343E+01   -2.2265556403E+01   -2.2134593637E+01
   -2.2005030700E+01   -2.1876856637E+01   -2.1750058358E+01   -2.1624622281E+01
   -2.1500533660E+01   -2.1377776442E+01   -2.1256334240E+01   -2.1136188567E+01
   -2.1017321351E+01   -2.0899711566E+01   -2.0783339330E+01   -2.0668180839E+01
   -2.0554214190E+01   -2.0441412520E+01   -2.0329751241E+01   -2.0219200532E+01
   -2.0109731927E+01   -2.0001316608E+01   -1.9893924936E+01   -1.9787531860E+01
   -1.9682110137E+01   -1.9577636893E+01   -1.9474087161E+01   -1.9371439580E+01
   -1.9269671138E+01   -1.9168761597E+01   -1.9068689580E+01   -1.8969435916E+01
   -1.8870980714E+01   -1.8773305905E+01   -1.8676393245E+01   -1.8580225798E+01
   -1.8484787456E+01   -1.8390062372E+01   -1.8296037303E+01   -1.8202697394E+01
   -1.8110032799E+01   -1.8018030268E+01   -1.7926682701E+01   -1.7835980264E+01
   -1.7745917136E+01   -1.7656487817E+01   -1.7567687359E+01   -1.7479514548E+01
   -1.7391965335E+01   -1.7305041421E+01   -1.7218741611E+01   -1.7133067848E+01
   -1.7048022060E+01   -1.6963606194E+01   -1.6879823856E+01   -1.6796677712E+01
   -1.6714171371E+01   -1.6632308344E+01   -1.6551091805E+01   -1.6470524746E+01
   -1.6390610746E+01   -1.6311351403E+01   -1.6232749631E+01   -1.6154806801E+01
   -1.6077523669E+01   -1.6000902216E+01   -1.5924941171E+01   -1.5849641078E+01
   -1.5775000962E+01   -1.5701018727E+01   -1.5627694009E+01   -1.5555023130E+01
   -1.5483003805E+01   -1.5411633294E+01   -1.5340907197E+01   -1.5270822502E+01
   -1.5201374490E+01   -1.5132558390E+01   -1.5064370250E+01   -1.4996804137E+01
   -1.4929855047E+01   -1.4863517705E+01   -1.4797785895E+01   -1.4732654146E+01
   -1.4668116249E+01   -1.4604165748E+01   -1.4540796755E+01   -1.4478002418E+01
   -1.4415776092E+01   -1.4354111403E+01   -1.4293001235E+01   -1.4232438751E+01
   -1.4172417119E+01   -1.4112929406E+01   -1.4053968671E+01   -1.3995528025E+01
   -1.3937600760E+01   -1.3880180017E+01   -1.3823259046E+01   -1.3766831233E+01
   -1.3710889758E+01   -1.3655428042E+01   -1.3600439687E+01   -1.3545918022E+01
   -1.3491856678E+01   -1.3438249461E+01   -1.3385089869E+01   -1.3332371747E+01
   -1.3280089152E+01   -1.3228235796E+01   -1.3176805728E+01   -1.3125793285E+01
   -1.3075192438E+01   -1.3024997414E+01   -1.2975202863E+01   -1.2925803056E+01
   -1.2876792360E+01   -1.2828165769E+01   -1.2779917899E+01   -1.2732043212E+01
   -1.2684537073E+01   -1.2637394473E+01   -1.2590609947E+01   -1.2544179228E+01
   -1.2498097614E+01   -1.2452360012E+01   -1.2406962192E+01   -1.2361899871E+01
   -1.2317168380E+01   -1.2272763447E+01   -1.2228681230E+01   -1.2184917519E+01
   -1.2141467943E+01   -1.2098329104E+01   -1.2055497188E+01   -1.2012967955E+01
   -1.1970738169E+01   -1.1928804389E+01   -1.1887162853E+01   -1.1845810110E+01
   -1.1804743183E+01   -1.1763958807E+01   -1.1723453292E+01   -1.1683224090E+01
   -1.1643268203E+01   -1.1603582370E+01   -1.1564163776E+01   -1.1525009859E+01
   -1.1486117832E+01   -1.1447484577E+01   -1.1409107920E+01   -1.1370985305E+01
   -1.1333113985E+01   -1.1295491492E+01   -1.1258115643E+01   -1.1220984064E+01
   -1.1184094096E+01   -1.1147443755E+01   -1.1111030853E+01   -1.1074853097E+01
   -1.1038908177E+01   -1.1003194195E+01   -1.0967709058E+01   -1.0932450542E+01
   -1.0897416649E+01   -1.0862605475E+01   -1.0828015027E+01   -1.0793643164E+01
   -1.0759488078E+01   -1.0725547876E+01   -1.0691820625E+01   -1.0658304308E+01
   -1.0624997182E+01   -1.0591897386E+01   -1.0559003027E+01   -1.0526312210E+01
   -1.0493823199E+01   -1.0461534181E+01   -1.0429443294E+01   -1.0397548725E+01
   -1.0365848769E+01   -1.0334341658E+01   -1.0303025545E+01   -1.0271898695E+01
   -1.0240959473E+01   -1.0210206172E+01   -1.0179636955E+01   -1.0149250186E+01
   -1.0119044351E+01   -1.0089017830E+01   -1.0059168877E+01   -1.0029495945E+01
   -9.9999976024E+00   -9.9706723174E+00   -9.9415184642E+00   -9.9125345450E+00
   -9.8837191857E+00   -9.8550709208E+00   -9.8265882059E+00   -9.7982695685E+00
   -9.7701137263E+00   -9.7421192836E+00   -9.7142847956E+00   -9.6866087964E+00
   -9.6590900898E+00   -9.6317273448E+00   -9.6045192187E+00   -9.5774642316E+00
   -9.5505612781E+00   -9.5238090890E+00   -9.4972063954E+00   -9.4707517866E+00
   -9.4444441496E+00   -9.4182823072E+00   -9.3922650497E+00   -9.3663910773E+00
   -9.3406592146E+00   -9.3150683915E+00   -9.2896174544E+00   -9.2643052209E+00
   -9.2391304372E+00   -9.2140921404E+00   -9.1891892308E+00   -9.1644206085E+00
   -9.1397850489E+00   -9.1152815761E+00   -9.0909091805E+00   -9.0666668135E+00
   -9.0425533756E+00   -9.0185677736E+00   -8.9947091174E+00   -8.9709764071E+00
   -8.9473686429E+00   -8.9238847006E+00   -8.9005237100E+00   -8.8772847492E+00
   -8.8541668650E+00   -8.8311690666E+00   -8.8082903332E+00   -8.7855298710E+00
   -8.7628867710E+00   -8.7403601244E+00   -8.7179489290E+00   -8.6956523380E+00
   -8.6734695419E+00   -8.6513996741E+00   -8.6294418681E+00   -8.6075951214E+00
   -8.5858587339E+00   -8.5642318866E+00   -8.5427137535E+00   -8.5213034761E+00
   -8.5000001588E+00   -8.4788031235E+00   -8.4577115825E+00   -8.4367247483E+00
   -8.4158417715E+00   -8.3950618630E+00   -8.3743843501E+00   -8.3538084821E+00
   -8.3333335079E+00   -8.3129585954E+00   -8.2926830393E+00   -8.2725061792E+00
   -8.2524272992E+00   -8.2324456833E+00   -8.2125605235E+00   -8.1927711771E+00
   -8.1730770027E+00   -8.1534773177E+00   -8.1339714395E+00   -8.1145585905E+00
   -8.0952381708E+00   -8.0760095645E+00   -8.0568721208E+00   -8.0378251890E+00
   -8.0188680277E+00   -8.0000000611E+00   -7.9812207051E+00   -7.9625293395E+00
   -7.9439253436E+00   -7.9254080182E+00   -7.9069767937E+00   -7.8886311242E+00
   -7.8703704181E+00   -7.8521940838E+00   -7.8341014694E+00   -7.8160919953E+00
   -7.7981651590E+00   -7.7803203964E+00   -7.7625571434E+00   -7.7448748010E+00
   -7.7272727643E+00   -7.7097505786E+00   -7.6923077063E+00   -7.6749436095E+00
   -7.6576577472E+00   -7.6404494755E+00   -7.6233183913E+00   -7.6062639821E+00
   -7.5892857351E+00   -7.5723831376E+00   -7.5555555981E+00   -7.5388026649E+00
   -7.5221238834E+00   -7.5055187646E+00   -7.4889868198E+00   -7.4725275259E+00
   -7.4561403591E+00   -7.4398249293E+00   -7.4235807705E+00   -7.4074074165E+00
   -7.3913044015E+00   -7.3752711684E+00   -7.3593073442E+00   -7.3434125006E+00
   -7.3275861932E+00   -7.3118279779E+00   -7.2961373751E+00   -7.2805139119E+00
   -7.2649572349E+00   -7.2494669205E+00   -7.2340425450E+00   -7.2186836848E+00
   -7.2033898404E+00   -7.1881606517E+00   -7.1729957415E+00   -7.1578947059E+00
   -7.1428571411E+00   -7.1278826343E+00   -7.1129707016E+00   -7.0981210482E+00
   -7.0833332890E+00   -7.0686070388E+00   -7.0539419127E+00   -7.0393374896E+00
   -7.0247933644E+00   -7.0103092323E+00   -6.9958847260E+00   -6.9815194785E+00
   -6.9672131227E+00   -6.9529652364E+00   -6.9387754759E+00   -6.9246435323E+00
   -6.9105690556E+00   -6.8965516957E+00   -6.8825911026E+00   -6.8686868600E+00
   -6.8548386683E+00   -6.8410462210E+00   -6.8273091844E+00   -6.8136272248E+00
   -6.8000000085E+00   -6.7864271308E+00   -6.7729083207E+00   -6.7594432800E+00
   -6.7460316908E+00   -6.7326732347E+00   -6.7193675938E+00   -6.7061143807E+00
   -6.6929133377E+00   -6.6797641813E+00   -6.6666666083E+00   -6.6536203152E+00
   -6.6406249988E+00   -6.6276802947E+00   -6.6147859441E+00   -6.6019416840E+00
   -6.5891472251E+00   -6.5764022783E+00   -6.5637065544E+00   -6.5510597168E+00
   -6.5384614928E+00   -6.5259116448E+00   -6.5134098970E+00   -6.5009559738E+00
   -6.4885495993E+00   -6.4761904699E+00   -6.4638782867E+00   -6.4516128419E+00
   -6.4393938728E+00   -6.4272211164E+00   -6.4150943098E+00   -6.4030131871E+00
   -6.3909774119E+00   -6.3789868104E+00   -6.3670411318E+00   -6.3551401258E+00
   -6.3432835415E+00   -6.3314711283E+00   -6.3197025830E+00   -6.3079776885E+00
   -6.2962962325E+00   -6.2846579760E+00   -6.2730626801E+00   -6.2615101059E+00
   -6.2499999973E+00   -6.2385320746E+00   -6.2271061701E+00   -6.2157220558E+00
   -6.2043795040E+00   -6.1930782869E+00   -6.1818181766E+00   -6.1705988931E+00
   -6.1594202446E+00   -6.1482820372E+00   -6.1371840538E+00   -6.1261260771E+00
   -6.1151078899E+00   -6.1041292684E+00   -6.0931899364E+00   -6.0822897531E+00
   -6.0714285114E+00   -6.0606060043E+00   -6.0498220247E+00   -6.0390763655E+00
   -6.0283687901E+00   -6.0176990820E+00   -6.0070670864E+00   -5.9964726059E+00
   -5.9859154430E+00   -5.9753954004E+00   -5.9649122805E+00   -5.9544658407E+00
   -5.9440559094E+00   -5.9336823234E+00   -5.9233448946E+00   -5.9130434347E+00
   -5.9027777555E+00   -5.8925476689E+00   -5.8823529317E+00   -5.8721934034E+00
   -5.8620689185E+00   -5.8519792975E+00   -5.8419243609E+00   -5.8319039292E+00
   -5.8219178231E+00   -5.8119658047E+00   -5.8020477514E+00   -5.7921635007E+00
   -5.7823128815E+00   -5.7724957226E+00   -5.7627118530E+00   -5.7529611016E+00
   -5.7432432410E+00   -5.7335581540E+00   -5.7239056865E+00   -5.7142856755E+00
   -5.7046979577E+00   -5.6951423700E+00   -5.6856187494E+00   -5.6761268835E+00
   -5.6666666492E+00   -5.6572379058E+00
  </PP_LOCAL>
 <PP_NONLOCAL>
   <PP_BETA.1
       type="real"
       size=" 602"
       columns="4"
       index="1"
       angular_momentum="0"
       cutoff_radius_index=" 338"
       cutoff_radius="    3.3700000000E+00" >
    0.0000000000E+00    1.7995501474E-02    3.5885090172E-02    5.3563343526E-02
    7.0925817431E-02    8.7869530583E-02    1.0429344297E-01    1.2009892662E-01
    1.3519022664E-01    1.4947491080E-01    1.6286430574E-01    1.7527391808E-01
    1.8662383872E-01    1.9683912862E-01    2.0585018450E-01    2.1359308296E-01
    2.2000990140E-01    2.2504901476E-01    2.2866536626E-01    2.3082071134E-01
    2.3148383363E-01    2.3063073186E-01    2.2824477704E-01    2.2431683859E-01
    2.1884537963E-01    2.1183652022E-01    2.0330406793E-01    1.9326951644E-01
    1.8176201114E-01    1.6881828163E-01    1.5448254178E-01    1.3880635732E-01
    1.2184848118E-01    1.0367465637E-01    8.4357390281E-02    6.3975693513E-02
    4.2614798006E-02    2.0365833518E-02   -2.6745094568E-03   -2.6404349257E-02
   -5.0717011338E-02   -7.5501444415E-02   -1.0064265824E-01   -1.2602218413E-01
   -1.5151855297E-01   -1.7700778949E-01   -2.0236391792E-01   -2.2745948296E-01
   -2.5216609615E-01   -2.7635496092E-01   -2.9989741452E-01   -3.2266546626E-01
   -3.4453241627E-01   -3.6537330727E-01   -3.8506552820E-01   -4.0348938458E-01
   -4.2052850518E-01   -4.3607057412E-01   -4.5000757682E-01   -4.6223657526E-01
   -4.7265993807E-01   -4.8118595217E-01   -4.8772926350E-01   -4.9221108152E-01
   -4.9455992011E-01   -4.9471168819E-01   -4.9260999862E-01   -4.8820670338E-01