<UPF version="2.0.1">
  <PP_INFO>

 This pseudopotential file has been produced using the code
 ONCVPSP  (Optimized Norm-Conservinng Vanderbilt PSeudopotential)
 scalar-relativistic version 2.1.1, 03/26/2014 by D. R. Hamann
 The code is available through a link at URL www.mat-simresearch.com.
 Documentation with the package provides a full discription of the
 input data below.


 While it is not required under the terms of the GNU GPL, it is
 suggested that you cite D. R. Hamann, Phys. Rev. B 88, 085117 (2013)
 in any publication using these pseudopotentials.


 Copyright 2015 The Regents of the University of California
 
 This work is licensed under the Creative Commons Attribution-ShareAlike 
 4.0 International License. To view a copy of this license, visit 
 http://creativecommons.org/licenses/by-sa/4.0/ or send a letter to 
 Creative Commons, PO Box 1866, Mountain View, CA 94042, USA.
 
 This pseudopotential is part of the Schlipf-Gygi norm-conserving 
 pseudopotential library. Its construction parameters were tuned to 
 reproduce materials of a training set with very high accuracy and 
 should be suitable as a general purpose pseudopotential to treat a 
 variety of different compounds. For details of the construction and 
 testing of the pseudopotential please refer to:
 
 M. Schlipf, F. Gygi, Comp. Phys. Comm. 196, 36 (2015)
 http://dx.doi.org/10.1016/j.cpc.2015.05.011
 
 We kindly ask that you include this reference in all publications 
 associated to this pseudopotential.


    <PP_INPUTFILE>
# ATOM AND REFERENCE CONFIGURATION
# atsym  z    nc    nv    iexc   psfile
  Mg 12.00     1     3     4      upf
#
#   n    l    f        energy (Ha)
    1    0    2.00
    2    0    2.00
    2    1    6.00
    3    0    2.00
#
# PSEUDOPOTENTIAL AND OPTIMIZATION
# lmax
    1
#
#   l,   rc,     ep,   ncon, nbas, qcut
    0   1.23189  -2.93427    5    8  10.54420
    1   2.49013  -1.71303    5    8   6.93037
#
# LOCAL POTENTIAL
# lloc, lpopt,  rc(5),   dvloc0
    4    5   0.86130      0.00000
#
# VANDERBILT-KLEINMAN-BYLANDER PROJECTORs
# l, nproj, debl
    0    2   2.76134
    1    2   1.66415
#
# MODEL CORE CHARGE
# icmod, fcfact
    0   0.00000
#
# LOG DERIVATIVE ANALYSIS
# epsh1, epsh2, depsh
   -5.00    3.00    0.02
#
# OUTPUT GRID
# rlmax, drl
    6.00    0.01
#
# TEST CONFIGURATIONS
# ncnf
    0
# nvcnf
#   n    l    f
    </PP_INPUTFILE>
  </PP_INFO>
  <!--                               -->
  <!-- END OF HUMAN READABLE SECTION -->
  <!--                               -->
    <PP_HEADER
       generated="Generated using ONCVPSP code by D. R. Hamann"
       author="Martin Schlipf and Francois Gygi"
       date="150105"
       comment=""
       element="Mg"
       pseudo_type="NC"
       relativistic="scalar"
       is_ultrasoft="F"
       is_paw="F"
       is_coulomb="F"
       has_so="F"
       has_wfc="F"
       has_gipaw="F"
       core_correction="F"
       functional="PBE"
       z_valence="   10.00"
       total_psenergy="  -5.42726851562E+01"
       rho_cutoff="   6.01000000000E+00"
       l_max="1"
       l_local="-1"
       mesh_size="   602"
       number_of_wfc="0"
       number_of_proj="4"/>
 <PP_MESH>
   <PP_R type="real"  size=" 602" columns="8">
    0.0000    0.0100    0.0200    0.0300    0.0400    0.0500    0.0600    0.0700
    0.0800    0.0900    0.1000    0.1100    0.1200    0.1300    0.1400    0.1500
    0.1600    0.1700    0.1800    0.1900    0.2000    0.2100    0.2200    0.2300
    0.2400    0.2500    0.2600    0.2700    0.2800    0.2900    0.3000    0.3100
    0.3200    0.3300    0.3400    0.3500    0.3600    0.3700    0.3800    0.3900
    0.4000    0.4100    0.4200    0.4300    0.4400    0.4500    0.4600    0.4700
    0.4800    0.4900    0.5000    0.5100    0.5200    0.5300    0.5400    0.5500
    0.5600    0.5700    0.5800    0.5900    0.6000    0.6100    0.6200    0.6300
    0.6400    0.6500    0.6600    0.6700    0.6800    0.6900    0.7000    0.7100
    0.7200    0.7300    0.7400    0.7500    0.7600    0.7700    0.7800    0.7900
    0.8000    0.8100    0.8200    0.8300    0.8400    0.8500    0.8600    0.8700
    0.8800    0.8900    0.9000    0.9100    0.9200    0.9300    0.9400    0.9500
    0.9600    0.9700    0.9800    0.9900    1.0000    1.0100    1.0200    1.0300
    1.0400    1.0500    1.0600    1.0700    1.0800    1.0900    1.1000    1.1100
    1.1200    1.1300    1.1400    1.1500    1.1600    1.1700    1.1800    1.1900
    1.2000    1.2100    1.2200    1.2300    1.2400    1.2500    1.2600    1.2700
    1.2800    1.2900    1.3000    1.3100    1.3200    1.3300    1.3400    1.3500
    1.3600    1.3700    1.3800    1.3900    1.4000    1.4100    1.4200    1.4300
    1.4400    1.4500    1.4600    1.4700    1.4800    1.4900    1.5000    1.5100
    1.5200    1.5300    1.5400    1.5500    1.5600    1.5700    1.5800    1.5900
    1.6000    1.6100    1.6200    1.6300    1.6400    1.6500    1.6600    1.6700
    1.6800    1.6900    1.7000    1.7100    1.7200    1.7300    1.7400    1.7500
    1.7600    1.7700    1.7800    1.7900    1.8000    1.8100    1.8200    1.8300
    1.8400    1.8500    1.8600    1.8700    1.8800    1.8900    1.9000    1.9100
    1.9200    1.9300    1.9400    1.9500    1.9600    1.9700    1.9800    1.9900
    2.0000    2.0100    2.0200    2.0300    2.0400    2.0500    2.0600    2.0700
    2.0800    2.0900    2.1000    2.1100    2.1200    2.1300    2.1400    2.1500
    2.1600    2.1700    2.1800    2.1900    2.2000    2.2100    2.2200    2.2300
    2.2400    2.2500    2.2600    2.2700    2.2800    2.2900    2.3000    2.3100
    2.3200    2.3300    2.3400    2.3500    2.3600    2.3700    2.3800    2.3900
    2.4000    2.4100    2.4200    2.4300    2.4400    2.4500    2.4600    2.4700
    2.4800    2.4900    2.5000    2.5100    2.5200    2.5300    2.5400    2.5500
    2.5600    2.5700    2.5800    2.5900    2.6000    2.6100    2.6200    2.6300
    2.6400    2.6500    2.6600    2.6700    2.6800    2.6900    2.7000    2.7100
    2.7200    2.7300    2.7400    2.7500    2.7600    2.7700    2.7800    2.7900
    2.8000    2.8100    2.8200    2.8300    2.8400    2.8500    2.8600    2.8700
    2.8800    2.8900    2.9000    2.9100    2.9200    2.9300    2.9400    2.9500
    2.9600    2.9700    2.9800    2.9900    3.0000    3.0100    3.0200    3.0300
    3.0400    3.0500    3.0600    3.0700    3.0800    3.0900    3.1000    3.1100
    3.1200    3.1300    3.1400    3.1500    3.1600    3.1700    3.1800    3.1900
    3.2000    3.2100    3.2200    3.2300    3.2400    3.2500    3.2600    3.2700
    3.2800    3.2900    3.3000    3.3100    3.3200    3.3300    3.3400    3.3500
    3.3600    3.3700    3.3800    3.3900    3.4000    3.4100    3.4200    3.4300
    3.4400    3.4500    3.4600    3.4700    3.4800    3.4900    3.5000    3.5100
    3.5200    3.5300    3.5400    3.5500    3.5600    3.5700    3.5800    3.5900
    3.6000    3.6100    3.6200    3.6300    3.6400    3.6500    3.6600    3.6700
    3.6800    3.6900    3.7000    3.7100    3.7200    3.7300    3.7400    3.7500
    3.7600    3.7700    3.7800    3.7900    3.8000    3.8100    3.8200    3.8300
    3.8400    3.8500    3.8600    3.8700    3.8800    3.8900    3.9000    3.9100
    3.9200    3.9300    3.9400    3.9500    3.9600    3.9700    3.9800    3.9900
    4.0000    4.0100    4.0200    4.0300    4.0400    4.0500    4.0600    4.0700
    4.0800    4.0900    4.1000    4.1100    4.1200    4.1300    4.1400    4.1500
    4.1600    4.1700    4.1800    4.1900    4.2000    4.2100    4.2200    4.2300
    4.2400    4.2500    4.2600    4.2700    4.2800    4.2900    4.3000    4.3100
    4.3200    4.3300    4.3400    4.3500    4.3600    4.3700    4.3800    4.3900
    4.4000    4.4100    4.4200    4.4300    4.4400    4.4500    4.4600    4.4700
    4.4800    4.4900    4.5000    4.5100    4.5200    4.5300    4.5400    4.5500
    4.5600    4.5700    4.5800    4.5900    4.6000    4.6100    4.6200    4.6300
    4.6400    4.6500    4.6600    4.6700    4.6800    4.6900    4.7000    4.7100
    4.7200    4.7300    4.7400    4.7500    4.7600    4.7700    4.7800    4.7900
    4.8000    4.8100    4.8200    4.8300    4.8400    4.8500    4.8600    4.8700
    4.8800    4.8900    4.9000    4.9100    4.9200    4.9300    4.9400    4.9500
    4.9600    4.9700    4.9800    4.9900    5.0000    5.0100    5.0200    5.0300
    5.0400    5.0500    5.0600    5.0700    5.0800    5.0900    5.1000    5.1100
    5.1200    5.1300    5.1400    5.1500    5.1600    5.1700    5.1800    5.1900
    5.2000    5.2100    5.2200    5.2300    5.2400    5.2500    5.2600    5.2700
    5.2800    5.2900    5.3000    5.3100    5.3200    5.3300    5.3400    5.3500
    5.3600    5.3700    5.3800    5.3900    5.4000    5.4100    5.4200    5.4300
    5.4400    5.4500    5.4600    5.4700    5.4800    5.4900    5.5000    5.5100
    5.5200    5.5300    5.5400    5.5500    5.5600    5.5700    5.5800    5.5900
    5.6000    5.6100    5.6200    5.6300    5.6400    5.6500    5.6600    5.6700
    5.6800    5.6900    5.7000    5.7100    5.7200    5.7300    5.7400    5.7500
    5.7600    5.7700    5.7800    5.7900    5.8000    5.8100    5.8200    5.8300
    5.8400    5.8500    5.8600    5.8700    5.8800    5.8900    5.9000    5.9100
    5.9200    5.9300    5.9400    5.9500    5.9600    5.9700    5.9800    5.9900
    6.0000    6.0100
   </PP_R>
   <PP_RAB type="real"  size=" 602" columns="8">
    0.0100    0.0100    0.0100    0.0100    0.0100    0.0100    0.0100    0.0100
    0.0100    0.0100    0.0100    0.0100    0.0100    0.0100    0.0100    0.0100
    0.0100    0.0100    0.0100    0.0100    0.0100    0.0100    0.0100    0.0100
    0.0100    0.0100    0.0100    0.0100    0.0100    0.0100    0.0100    0.0100
    0.0100    0.0100    0.0100    0.0100    0.0100    0.0100    0.0100    0.0100
    0.0100    0.0100    0.0100    0.0100    0.0100    0.0100    0.0100    0.0100
    0.0100    0.0100    0.0100    0.0100    0.0100    0.0100    0.0100    0.0100
    0.0100    0.0100    0.0100    0.0100    0.0100    0.0100    0.0100    0.0100
    0.0100    0.0100    0.0100    0.0100    0.0100    0.0100    0.0100    0.0100
    0.0100    0.0100    0.0100    0.0100    0.0100    0.0100    0.0100    0.0100
    0.0100    0.0100    0.0100    0.0100    0.0100    0.0100    0.0100    0.0100
    0.0100    0.0100    0.0100    0.0100    0.0100    0.0100    0.0100    0.0100
    0.0100    0.0100    0.0100    0.0100    0.0100    0.0100    0.0100    0.0100
    0.0100    0.0100    0.0100    0.0100    0.0100    0.0100    0.0100    0.0100
    0.0100    0.0100    0.0100    0.0100    0.0100    0.0100    0.0100    0.0100
    0.0100    0.0100    0.0100    0.0100    0.0100    0.0100    0.0100    0.0100
    0.0100    0.0100    0.0100    0.0100    0.0100    0.0100    0.0100    0.0100
    0.0100    0.0100    0.0100    0.0100    0.0100    0.0100    0.0100    0.0100
    0.0100    0.0100    0.0100    0.0100    0.0100    0.0100    0.0100    0.0100
    0.0100    0.0100    0.0100    0.0100    0.0100    0.0100    0.0100    0.0100
    0.0100    0.0100    0.0100    0.0100    0.0100    0.0100    0.0100    0.0100
    0.0100    0.0100    0.0100    0.0100    0.0100    0.0100    0.0100    0.0100
    0.0100    0.0100    0.0100    0.0100    0.0100    0.0100    0.0100    0.0100
    0.0100    0.0100    0.0100    0.0100    0.0100    0.0100    0.0100    0.0100
    0.0100    0.0100    0.0100    0.0100    0.0100    0.0100    0.0100    0.0100
    0.0100    0.0100    0.0100    0.0100    0.0100    0.0100    0.0100    0.0100
    0.0100    0.0100    0.0100    0.0100    0.0100    0.0100    0.0100    0.0100
    0.0100    0.0100    0.0100    0.0100    0.0100    0.0100    0.0100    0.0100
    0.0100    0.0100    0.0100    0.0100    0.0100    0.0100    0.0100    0.0100
    0.0100    0.0100    0.0100    0.0100    0.0100    0.0100    0.0100    0.0100
    0.0100    0.0100    0.0100    0.0100    0.0100    0.0100    0.0100    0.0100
    0.0100    0.0100    0.0100    0.0100    0.0100    0.0100    0.0100    0.0100
    0.0100    0.0100    0.0100    0.0100    0.0100    0.0100    0.0100    0.0100
    0.0100    0.0100    0.0100    0.0100    0.0100    0.0100    0.0100    0.0100
    0.0100    0.0100    0.0100    0.0100    0.0100    0.0100    0.0100    0.0100
    0.0100    0.0100    0.0100    0.0100    0.0100    0.0100    0.0100    0.0100
    0.0100    0.0100    0.0100    0.0100    0.0100    0.0100    0.0100    0.0100
    0.0100    0.0100    0.0100    0.0100    0.0100    0.0100    0.0100    0.0100
    0.0100    0.0100    0.0100    0.0100    0.0100    0.0100    0.0100    0.0100
    0.0100    0.0100    0.0100    0.0100    0.0100    0.0100    0.0100    0.0100
    0.0100    0.0100    0.0100    0.0100    0.0100    0.0100    0.0100    0.0100
    0.0100    0.0100    0.0100    0.0100    0.0100    0.0100    0.0100    0.0100
    0.0100    0.0100    0.0100    0.0100    0.0100    0.0100    0.0100    0.0100
    0.0100    0.0100    0.0100    0.0100    0.0100    0.0100    0.0100    0.0100
    0.0100    0.0100    0.0100    0.0100    0.0100    0.0100    0.0100    0.0100
    0.0100    0.0100    0.0100    0.0100    0.0100    0.0100    0.0100    0.0100
    0.0100    0.0100    0.0100    0.0100    0.0100    0.0100    0.0100    0.0100
    0.0100    0.0100    0.0100    0.0100    0.0100    0.0100    0.0100    0.0100
    0.0100    0.0100    0.0100    0.0100    0.0100    0.0100    0.0100    0.0100
    0.0100    0.0100    0.0100    0.0100    0.0100    0.0100    0.0100    0.0100
    0.0100    0.0100    0.0100    0.0100    0.0100    0.0100    0.0100    0.0100
    0.0100    0.0100    0.0100    0.0100    0.0100    0.0100    0.0100    0.0100
    0.0100    0.0100    0.0100    0.0100    0.0100    0.0100    0.0100    0.0100
    0.0100    0.0100    0.0100    0.0100    0.0100    0.0100    0.0100    0.0100
    0.0100    0.0100    0.0100    0.0100    0.0100    0.0100    0.0100    0.0100
    0.0100    0.0100    0.0100    0.0100    0.0100    0.0100    0.0100    0.0100
    0.0100    0.0100    0.0100    0.0100    0.0100    0.0100    0.0100    0.0100
    0.0100    0.0100    0.0100    0.0100    0.0100    0.0100    0.0100    0.0100
    0.0100    0.0100    0.0100    0.0100    0.0100    0.0100    0.0100    0.0100
    0.0100    0.0100    0.0100    0.0100    0.0100    0.0100    0.0100    0.0100
    0.0100    0.0100    0.0100    0.0100    0.0100    0.0100    0.0100    0.0100
    0.0100    0.0100    0.0100    0.0100    0.0100    0.0100    0.0100    0.0100
    0.0100    0.0100    0.0100    0.0100    0.0100    0.0100    0.0100    0.0100
    0.0100    0.0100    0.0100    0.0100    0.0100    0.0100    0.0100    0.0100
    0.0100    0.0100    0.0100    0.0100    0.0100    0.0100    0.0100    0.0100
    0.0100    0.0100    0.0100    0.0100    0.0100    0.0100    0.0100    0.0100
    0.0100    0.0100    0.0100    0.0100    0.0100    0.0100    0.0100    0.0100
    0.0100    0.0100    0.0100    0.0100    0.0100    0.0100    0.0100    0.0100
    0.0100    0.0100    0.0100    0.0100    0.0100    0.0100    0.0100    0.0100
    0.0100    0.0100    0.0100    0.0100    0.0100    0.0100    0.0100    0.0100
    0.0100    0.0100    0.0100    0.0100    0.0100    0.0100    0.0100    0.0100
    0.0100    0.0100    0.0100    0.0100    0.0100    0.0100    0.0100    0.0100
    0.0100    0.0100    0.0100    0.0100    0.0100    0.0100    0.0100    0.0100
    0.0100    0.0100    0.0100    0.0100    0.0100    0.0100    0.0100    0.0100
    0.0100    0.0100    0.0100    0.0100    0.0100    0.0100    0.0100    0.0100
    0.0100    0.0100
   </PP_RAB>
 </PP_MESH>
  <PP_LOCAL type="real"  size=" 602" columns="4">
   -4.5118064002E+01   -4.5112458827E+01   -4.5095620742E+01   -4.5067571789E+01
   -4.5028334006E+01   -4.4977938741E+01   -4.4916427085E+01   -4.4843850349E+01
   -4.4760270554E+01   -4.4665760878E+01   -4.4560406027E+01   -4.4444302495E+01
   -4.4317558703E+01   -4.4180295005E+01   -4.4032643552E+01   -4.3874748035E+01
   -4.3706763322E+01   -4.3528854998E+01   -4.3341198848E+01   -4.3143980287E+01
   -4.2937393768E+01   -4.2721642193E+01   -4.2496936328E+01   -4.2263494253E+01
   -4.2021540837E+01   -4.1771307268E+01   -4.1513030624E+01   -4.1246953495E+01
   -4.0973323656E+01   -4.0692393786E+01   -4.0404421240E+01   -4.0109667852E+01
   -3.9808399786E+01   -3.9500887401E+01   -3.9187405182E+01   -3.8868231629E+01
   -3.8543649226E+01   -3.8213944362E+01   -3.7879407293E+01   -3.7540332075E+01
   -3.7197016492E+01   -3.6849761966E+01   -3.6498873440E+01   -3.6144659238E+01
   -3.5787430884E+01   -3.5427502886E+01   -3.5065192476E+01   -3.4700819306E+01
   -3.4334705095E+01   -3.3967173232E+01   -3.3598548338E+01   -3.3229155757E+01
   -3.2859321031E+01   -3.2489369305E+01   -3.2119624704E+01   -3.1750409697E+01
   -3.1382044336E+01   -3.1014845640E+01   -3.0649126689E+01   -3.0285196035E+01
   -2.9923356732E+01   -2.9563905627E+01   -2.9207132646E+01   -2.8853319634E+01
   -2.8502739938E+01   -2.8155657415E+01   -2.7812325363E+01   -2.7472986053E+01
   -2.7137869968E+01   -2.6807194480E+01   -2.6481163389E+01   -2.6159966134E+01
   -2.5843776931E+01   -2.5532754187E+01   -2.5227039057E+01   -2.4926755189E+01
   -2.4632007838E+01   -2.4342883019E+01   -2.4059446712E+01   -2.3781744047E+01
   -2.3509798496E+01   -2.3243611052E+01   -2.2983159406E+01   -2.2728397113E+01
   -2.2479252752E+01   -2.2235629067E+01   -2.1997402043E+01   -2.1764420789E+01
   -2.1536523005E+01   -2.1313552779E+01   -2.1095363510E+01   -2.0881817129E+01
   -2.0672783431E+01   -2.0468139457E+01   -2.0267768916E+01   -2.0071561603E+01
   -1.9879412851E+01   -1.9691222934E+01   -1.9506896569E+01   -1.9326342587E+01
   -1.9149473091E+01   -1.8976203056E+01   -1.8806449812E+01   -1.8640132542E+01
   -1.8477171774E+01   -1.8317489027E+01   -1.8161006109E+01   -1.8007644756E+01
   -1.7857326237E+01   -1.7709971080E+01   -1.7565498334E+01   -1.7423825569E+01
   -1.7284868608E+01   -1.7148541632E+01   -1.7014756251E+01   -1.6883422262E+01
   -1.6754447676E+01   -1.6627738860E+01   -1.6503200377E+01   -1.6380736161E+01
   -1.6260249595E+01   -1.6141644021E+01   -1.6024823924E+01   -1.5909695006E+01
   -1.5796164966E+01   -1.5684145555E+01   -1.5573551358E+01   -1.5464300822E+01
   -1.5356319306E+01   -1.5249535733E+01   -1.5143884905E+01   -1.5039310026E+01
   -1.4935757597E+01   -1.4833182390E+01   -1.4731546368E+01   -1.4630814072E+01
   -1.4530960327E+01   -1.4431962985E+01   -1.4333804197E+01   -1.4236473442E+01
   -1.4139960865E+01   -1.4044262395E+01   -1.3949375664E+01   -1.3855300121E+01
   -1.3762038129E+01   -1.3669591961E+01   -1.3577965848E+01   -1.3487164051E+01
   -1.3397191454E+01   -1.3308053652E+01   -1.3219756048E+01   -1.3132305951E+01
   -1.3045710123E+01   -1.2959978585E+01   -1.2875121773E+01   -1.2791153730E+01
   -1.2708091746E+01   -1.2625955755E+01   -1.2544773345E+01   -1.2464572431E+01
   -1.2385393625E+01   -1.2307274835E+01   -1.2230270335E+01   -1.2154429411E+01
   -1.2079816997E+01   -1.2006493640E+01   -1.1934526982E+01   -1.1863985863E+01
   -1.1794927473E+01   -1.1727421381E+01   -1.1661496910E+01   -1.1597212900E+01
   -1.1534552170E+01   -1.1473544675E+01   -1.1414115798E+01   -1.1356245223E+01
   -1.1299801796E+01   -1.1244697755E+01   -1.1190760061E+01   -1.1137831468E+01
   -1.1085719795E+01   -1.1034221772E+01   -1.0983146248E+01   -1.0932293142E+01
   -1.0881483187E+01   -1.0830577493E+01   -1.0779414644E+01   -1.0727953720E+01
   -1.0676067294E+01   -1.0623794740E+01   -1.0571098529E+01   -1.0518035923E+01
   -1.0464660498E+01   -1.0411039031E+01   -1.0357271672E+01   -1.0303442749E+01
   -1.0249649529E+01   -1.0195993772E+01   -1.0142550977E+01   -1.0089409190E+01
   -1.0036638256E+01   -9.9842878189E+00   -9.9324282588E+00   -9.8810761488E+00
   -9.8302777622E+00   -9.7800470600E+00   -9.7303959459E+00   -9.6813411853E+00
   -9.6328736611E+00   -9.5849998170E+00   -9.5377091699E+00   -9.4909930089E+00
   -9.4448437176E+00   -9.3992461605E+00   -9.3541890778E+00   -9.3096585417E+00
   -9.2656405291E+00   -9.2221213169E+00   -9.1790878045E+00   -9.1365259593E+00
   -9.0944233393E+00   -9.0527681655E+00   -9.0115468432E+00   -8.9707497888E+00
   -8.9303656016E+00   -8.8903833731E+00   -8.8507945995E+00   -8.8115888336E+00
   -8.7727577783E+00   -8.7342936880E+00   -8.6961871753E+00   -8.6584320179E+00
   -8.6210209063E+00   -8.5839461716E+00   -8.5472024427E+00   -8.5107830634E+00
   -8.4746819229E+00   -8.4388941461E+00   -8.4034137679E+00   -8.3682358655E+00
   -8.3333560100E+00   -8.2987688713E+00   -8.2644704191E+00   -8.2304566362E+00
   -8.1967227691E+00   -8.1632654513E+00   -8.1300810486E+00   -8.0971653434E+00
   -8.0645154283E+00   -8.0321280065E+00   -7.9999993930E+00   -7.9681268717E+00
   -7.9365073892E+00   -7.9051376746E+00   -7.8740150380E+00   -7.8431365790E+00
   -7.8124992238E+00   -7.7821003640E+00   -7.7519372322E+00   -7.7220068821E+00
   -7.6923068165E+00   -7.6628344122E+00   -7.6335868764E+00   -7.6045617832E+00
   -7.5757566508E+00   -7.5471688342E+00   -7.5187959604E+00   -7.4906356897E+00
   -7.4626855267E+00   -7.4349431310E+00   -7.4074063042E+00   -7.3800727021E+00
   -7.3529399992E+00   -7.3260061366E+00   -7.2992689222E+00   -7.2727260316E+00
   -7.2463755406E+00   -7.2202153687E+00   -7.1942433070E+00   -7.1684574356E+00
   -7.1428558119E+00   -7.1174363777E+00   -7.0921971699E+00   -7.0671363911E+00
   -7.0422521380E+00   -7.0175423929E+00   -6.9930054968E+00   -6.9686396468E+00
   -6.9444429343E+00   -6.9204136622E+00   -6.8965501661E+00   -6.8728506919E+00
   -6.8493134532E+00   -6.8259369298E+00   -6.8027194828E+00   -6.7796593639E+00
   -6.7567550560E+00   -6.7340050388E+00   -6.7114077197E+00   -6.6889614632E+00
   -6.6666648961E+00   -6.6445165285E+00   -6.6225147801E+00   -6.6006582386E+00
   -6.5789455391E+00   -6.5573752604E+00   -6.5359458490E+00   -6.5146560844E+00
   -6.4935046125E+00   -6.4724900301E+00   -6.4516109632E+00   -6.4308662107E+00
   -6.4102544815E+00   -6.3897743976E+00   -6.3694247436E+00   -6.3492043378E+00
   -6.3291119494E+00   -6.3091462322E+00   -6.2893061067E+00   -6.2695904138E+00
   -6.2499979663E+00   -6.2305274967E+00   -6.2111779984E+00   -6.1919483525E+00
   -6.1728374063E+00   -6.1538439960E+00   -6.1349671465E+00   -6.1162057913E+00
   -6.0975588162E+00   -6.0790251432E+00   -6.0606038321E+00   -6.0422938657E+00
   -6.0240941726E+00   -6.0060037436E+00   -5.9880216762E+00   -5.9701470007E+00
   -5.9523786917E+00   -5.9347157928E+00   -5.9171574425E+00   -5.8997027164E+00
   -5.8823506385E+00   -5.8651002898E+00   -5.8479508533E+00   -5.8309014476E+00
   -5.8139511495E+00   -5.7970990630E+00   -5.7803444185E+00   -5.7636863760E+00
   -5.7471240678E+00   -5.7306566077E+00   -5.7142832766E+00   -5.6980032733E+00
   -5.6818157890E+00   -5.6657199355E+00   -5.6497150456E+00   -5.6338003556E+00
   -5.6179751016E+00   -5.6022384325E+00   -5.5865896850E+00   -5.5710281472E+00
   -5.5555530907E+00   -5.5401637286E+00   -5.5248593661E+00   -5.5096393531E+00
   -5.4945029954E+00   -5.4794495733E+00   -5.4644783510E+00   -5.4495887408E+00
   -5.4347800808E+00   -5.4200517089E+00   -5.4054028797E+00   -5.3908330283E+00
   -5.3763415364E+00   -5.3619277728E+00   -5.3475910640E+00   -5.3333307803E+00
   -5.3191463736E+00   -5.3050372421E+00   -5.2910027841E+00   -5.2770423106E+00
   -5.2631553298E+00   -5.2493412717E+00   -5.2355995627E+00   -5.2219295903E+00
   -5.2083307778E+00   -5.1948026309E+00   -5.1813446028E+00   -5.1679561464E+00
   -5.1546366417E+00   -5.1413856204E+00   -5.1282025762E+00   -5.1150869877E+00
   -5.1020383170E+00   -5.0890559934E+00   -5.0761395894E+00   -5.0632886079E+00
   -5.0505025517E+00   -5.0377808822E+00   -5.0251231105E+00   -5.0125288066E+00
   -4.9999974963E+00   -4.9875287059E+00   -4.9751219013E+00   -4.9627766609E+00
   -4.9504925560E+00   -4.9382691346E+00   -4.9261059448E+00   -4.9140024623E+00
   -4.9019583189E+00   -4.8899730912E+00   -4.8780463483E+00   -4.8661776564E+00
   -4.8543665136E+00   -4.8426125836E+00   -4.8309154554E+00   -4.8192747184E+00
   -4.8076899533E+00   -4.7961606917E+00   -4.7846866096E+00   -4.7732673154E+00
   -4.7619024174E+00   -4.7505915153E+00   -4.7393341622E+00   -4.7281300504E+00
   -4.7169788065E+00   -4.7058800571E+00   -4.6948334240E+00   -4.6838384719E+00
   -4.6728949122E+00   -4.6620023890E+00   -4.6511605462E+00   -4.6403690280E+00
   -4.6296274108E+00   -4.6189354181E+00   -4.6082927140E+00   -4.5976989590E+00
   -4.5871538137E+00   -4.5766568841E+00   -4.5662078818E+00   -4.5558064988E+00
   -4.5454524116E+00   -4.5351452964E+00   -4.5248847921E+00   -4.5146705892E+00
   -4.5045024106E+00   -4.4943799478E+00   -4.4843028923E+00   -4.4742709186E+00
   -4.4642836884E+00   -4.4543409576E+00   -4.4444424319E+00   -4.4345878173E+00
   -4.4247768196E+00   -4.4150090872E+00   -4.4052843878E+00   -4.3956024485E+00
   -4.3859629888E+00   -4.3763657282E+00   -4.3668103566E+00   -4.3572965945E+00
   -4.3478242090E+00   -4.3383929329E+00   -4.3290024987E+00   -4.3196526390E+00
   -4.3103430268E+00   -4.3010734643E+00   -4.2918436986E+00   -4.2826534747E+00
   -4.2735025377E+00   -4.2643906070E+00   -4.2553174224E+00   -4.2462827765E+00
   -4.2372864262E+00   -4.2283281285E+00   -4.2194076404E+00   -4.2105246719E+00
   -4.2016790230E+00   -4.1928704746E+00   -4.1840987950E+00   -4.1753637525E+00
   -4.1666651094E+00   -4.1580025892E+00   -4.1493760225E+00   -4.1407851885E+00
   -4.1322298663E+00   -4.1237098349E+00   -4.1152248538E+00   -4.1067746876E+00
   -4.0983591631E+00   -4.0899780696E+00   -4.0816311965E+00   -4.0733183333E+00
   -4.0650392404E+00   -4.0567937139E+00   -4.0485815799E+00   -4.0404026377E+00
   -4.0322566864E+00   -4.0241435253E+00   -4.0160629200E+00   -4.0080146878E+00
   -3.9999986582E+00   -3.9920146398E+00   -3.9840624411E+00   -3.9761418706E+00
   -3.9682527026E+00   -3.9603947667E+00   -3.9525678992E+00   -3.9447719176E+00
   -3.9370066393E+00   -3.9292718818E+00   -3.9215674311E+00   -3.9138931206E+00
   -3.9062487968E+00   -3.8986342857E+00   -3.8910494132E+00   -3.8834940052E+00
   -3.8759678627E+00   -3.8684708150E+00   -3.8610027217E+00   -3.8535634169E+00
   -3.8461527347E+00   -3.8387705092E+00   -3.8314165591E+00   -3.8240907021E+00
   -3.8167928139E+00   -3.8095227364E+00   -3.8022803114E+00   -3.7950653807E+00
   -3.7878777838E+00   -3.7807173197E+00   -3.7735838830E+00   -3.7664773228E+00
   -3.7593974882E+00   -3.7523442284E+00   -3.7453173927E+00   -3.7383167967E+00
   -3.7313423143E+00   -3.7243938153E+00   -3.7174711560E+00   -3.7105741926E+00
   -3.7037027813E+00   -3.6968567642E+00   -3.6900359816E+00   -3.6832403281E+00
   -3.6764696669E+00   -3.6697238608E+00   -3.6630027727E+00   -3.6563062655E+00
   -3.6496341657E+00   -3.6429863693E+00   -3.6363627539E+00   -3.6297631889E+00
   -3.6231875436E+00   -3.6166356872E+00   -3.6101074782E+00   -3.6036027653E+00
   -3.5971214566E+00   -3.5906634276E+00   -3.5842285538E+00   -3.5778167103E+00
   -3.5714277728E+00   -3.5650615906E+00   -3.5587180513E+00   -3.5523970532E+00
   -3.5460984775E+00   -3.5398222053E+00   -3.5335681179E+00   -3.5273360965E+00
   -3.5211259857E+00   -3.5149377028E+00   -3.5087711398E+00   -3.5026261832E+00
   -3.4965027199E+00   -3.4904006366E+00   -3.4843198171E+00   -3.4782601137E+00
   -3.4722214560E+00   -3.4662037361E+00   -3.4602068459E+00   -3.4542306774E+00
   -3.4482751226E+00   -3.4423400661E+00   -3.4364253759E+00   -3.4305309812E+00
   -3.4246567792E+00   -3.4188026669E+00   -3.4129685412E+00   -3.4071542993E+00
   -3.4013598298E+00   -3.3955850086E+00   -3.3898297679E+00   -3.3840940096E+00
   -3.3783776356E+00   -3.3726805477E+00   -3.3670026477E+00   -3.3613438313E+00
   -3.3557039754E+00   -3.3500830181E+00   -3.3444808659E+00   -3.3388974251E+00
   -3.3333326022E+00   -3.3277863035E+00
  </PP_LOCAL>
 <PP_NONLOCAL>
   <PP_BETA.1
       type="real"
       size=" 602"
       columns="4"
       index="1"
       angular_momentum="0"
       cutoff_radius_index=" 254"
       cutoff_radius="    2.5300000000E+00" >
    0.0000000000E+00   -7.5532495916E-02   -1.5128652759E-01   -2.2747281327E-01
   -3.0428066225E-01   -3.8186783135E-01   -4.6035104323E-01   -5.3979736792E-01
   -6.2021665365E-01   -7.0155517337E-01   -7.8369063127E-01   -8.6642864841E-01
   -9.4950081942E-01   -1.0325644026E+00   -1.1152036760E+00   -1.1969329599E+00
   -1.2772012767E+00   -1.3553985833E+00   -1.4308634885E+00   -1.5028923345E+00
   -1.5707494887E+00   -1.6336786853E+00   -1.6909152114E+00   -1.7416987427E+00
   -1.7852865837E+00   -1.8209670776E+00   -1.8480729989E+00   -1.8659945771E+00
   -1.8741919948E+00   -1.8722071162E+00   -1.8596741971E+00   -1.8363293781E+00
   -1.8020187636E+00   -1.7567048294E+00   -1.7004714946E+00   -1.6335266962E+00
   -1.5562038340E+00   -1.4689605345E+00   -1.3723759963E+00   -1.2671460887E+00
   -1.1540765896E+00   -1.0340746749E+00   -9.0813868037E-01   -7.7734631794E-01
   -6.4284152395E-01   -5.0582014097E-01   -3.6751465627E-01   -2.2917824330E-01
   -9.2068397389E-02    4.2569184952E-02    1.7351837968E-01    2.9960770310E-01
    4.1972509237E-01    5.3283495613E-01    6.3798957005E-01    7.3434143268E-01
    8.2115619539E-01    8.9781765659E-01    9.6384002289E-01    1.0188680069E+00
    1.0626842757E+00    1.0952085114E+00    1.1164956421E+00    1.1267367397E+00
    1.1262498073E+00    1.1154752291E+00    1.0949681485E+00    1.0653865081E+00
    1.0274804707E+00    9.8208026331E-01    9.3008175682E-01    8.7243234817E-01
    8.1011613271E-01    7.4413951318E-01    6.7551377423E-01    6.0524155912E-01
    5.3430204150E-01    4.6363673407E-01    3.9413619181E-01    3.2662766866E-01
    2.6186386988E-01    2.0051291304E-01    1.4314958113E-01    9.0247919638E-02
    4.2175198437E-02   -8.1277114407E-04   -3.8575072333E-02   -7.1086983252E-02
   -9.8422366483E-02   -1.2072961070E-01   -1.3822116517E-01   -1.5116611707E-01
   -1.5988202697E-01   -1.6472622745E-01   -1.6608683071E-01   -1.6437363912E-01
   -1.6000915098E-01   -1.5342018868E-01   -1.4502993668E-01   -1.3524763896E-01