<UPF version="2.0.1">
  <PP_INFO>

 Mo_ONCV_PBE-1.0.upf

 This pseudopotential file has been produced using the code
 ONCVPSP  (Optimized Norm-Conservinng Vanderbilt PSeudopotential)
 scalar-relativistic version 2.1.1, 03/26/2014 by D. R. Hamann
 The code is available through a link at URL www.mat-simresearch.com.
 Documentation with the package provides a full discription of the
 input data below.


 While it is not required under the terms of the GNU GPL, it is
 suggested that you cite D. R. Hamann, Phys. Rev. B 88, 085117 (2013)
 in any publication using these pseudopotentials.


 Copyright 2015 The Regents of the University of California
 
 This work is licensed under the Creative Commons Attribution-ShareAlike 
 4.0 International License. To view a copy of this license, visit 
 http://creativecommons.org/licenses/by-sa/4.0/ or send a letter to 
 Creative Commons, PO Box 1866, Mountain View, CA 94042, USA.
 
 This pseudopotential is part of the Schlipf-Gygi norm-conserving 
 pseudopotential library. Its construction parameters were tuned to 
 reproduce materials of a training set with very high accuracy and 
 should be suitable as a general purpose pseudopotential to treat a 
 variety of different compounds. For details of the construction and 
 testing of the pseudopotential please refer to:
 
 M. Schlipf, F. Gygi, Comp. Phys. Comm. 196, 36 (2015)
 http://dx.doi.org/10.1016/j.cpc.2015.05.011
 
 We kindly ask that you include this reference in all publications 
 associated to this pseudopotential.


    <PP_INPUTFILE>
# ATOM AND REFERENCE CONFIGURATION
# atsym  z    nc    nv    iexc   psfile
  Mo 42.00     6     4     4      upf
#
#   n    l    f        energy (Ha)
    1    0    2.00
    2    0    2.00
    2    1    6.00
    3    0    2.00
    3    1    6.00
    3    2   10.00
    4    0    2.00
    4    1    6.00
    5    0    2.00
    4    2    4.00
#
# PSEUDOPOTENTIAL AND OPTIMIZATION
# lmax
    2
#
#   l,   rc,     ep,   ncon, nbas, qcut
    0   2.31752  -2.46589    5    8   6.14340
    1   2.51934  -1.51012    5    8   5.89847
    2   2.58017  -0.20772    5    8   5.73514
#
# LOCAL POTENTIAL
# lloc, lpopt,  rc(5),   dvloc0
    4    5   1.54485      0.00000
#
# VANDERBILT-KLEINMAN-BYLANDER PROJECTORs
# l, nproj, debl
    0    2   2.28660
    1    2   1.55891
    2    2   1.36726
#
# MODEL CORE CHARGE
# icmod, fcfact
    0   0.00000
#
# LOG DERIVATIVE ANALYSIS
# epsh1, epsh2, depsh
   -5.00    3.00    0.02
#
# OUTPUT GRID
# rlmax, drl
    6.00    0.01
#
# TEST CONFIGURATIONS
# ncnf
    0
# nvcnf
#   n    l    f
    </PP_INPUTFILE>
  </PP_INFO>
  <!--                               -->
  <!-- END OF HUMAN READABLE SECTION -->
  <!--                               -->
    <PP_HEADER
       generated="Generated using ONCVPSP code by D. R. Hamann"
       author="Martin Schlipf and Francois Gygi"
       date="150105"
       comment=""
       element="Mo"
       pseudo_type="NC"
       relativistic="scalar"
       is_ultrasoft="F"
       is_paw="F"
       is_coulomb="F"
       has_so="F"
       has_wfc="F"
       has_gipaw="F"
       core_correction="F"
       functional="PBE"
       z_valence="   14.00"
       total_psenergy="  -6.81700286090E+01"
       rho_cutoff="   6.01000000000E+00"
       l_max="2"
       l_local="-1"
       mesh_size="   602"
       number_of_wfc="0"
       number_of_proj="6"/>
 <PP_MESH>
   <PP_R type="real"  size=" 602" columns="8">
    0.0000    0.0100    0.0200    0.0300    0.0400    0.0500    0.0600    0.0700
    0.0800    0.0900    0.1000    0.1100    0.1200    0.1300    0.1400    0.1500
    0.1600    0.1700    0.1800    0.1900    0.2000    0.2100    0.2200    0.2300
    0.2400    0.2500    0.2600    0.2700    0.2800    0.2900    0.3000    0.3100
    0.3200    0.3300    0.3400    0.3500    0.3600    0.3700    0.3800    0.3900
    0.4000    0.4100    0.4200    0.4300    0.4400    0.4500    0.4600    0.4700
    0.4800    0.4900    0.5000    0.5100    0.5200    0.5300    0.5400    0.5500
    0.5600    0.5700    0.5800    0.5900    0.6000    0.6100    0.6200    0.6300
    0.6400    0.6500    0.6600    0.6700    0.6800    0.6900    0.7000    0.7100
    0.7200    0.7300    0.7400    0.7500    0.7600    0.7700    0.7800    0.7900
    0.8000    0.8100    0.8200    0.8300    0.8400    0.8500    0.8600    0.8700
    0.8800    0.8900    0.9000    0.9100    0.9200    0.9300    0.9400    0.9500
    0.9600    0.9700    0.9800    0.9900    1.0000    1.0100    1.0200    1.0300
    1.0400    1.0500    1.0600    1.0700    1.0800    1.0900    1.1000    1.1100
    1.1200    1.1300    1.1400    1.1500    1.1600    1.1700    1.1800    1.1900
    1.2000    1.2100    1.2200    1.2300    1.2400    1.2500    1.2600    1.2700
    1.2800    1.2900    1.3000    1.3100    1.3200    1.3300    1.3400    1.3500
    1.3600    1.3700    1.3800    1.3900    1.4000    1.4100    1.4200    1.4300
    1.4400    1.4500    1.4600    1.4700    1.4800    1.4900    1.5000    1.5100
    1.5200    1.5300    1.5400    1.5500    1.5600    1.5700    1.5800    1.5900
    1.6000    1.6100    1.6200    1.6300    1.6400    1.6500    1.6600    1.6700
    1.6800    1.6900    1.7000    1.7100    1.7200    1.7300    1.7400    1.7500
    1.7600    1.7700    1.7800    1.7900    1.8000    1.8100    1.8200    1.8300
    1.8400    1.8500    1.8600    1.8700    1.8800    1.8900    1.9000    1.9100
    1.9200    1.9300    1.9400    1.9500    1.9600    1.9700    1.9800    1.9900
    2.0000    2.0100    2.0200    2.0300    2.0400    2.0500    2.0600    2.0700
    2.0800    2.0900    2.1000    2.1100    2.1200    2.1300    2.1400    2.1500
    2.1600    2.1700    2.1800    2.1900    2.2000    2.2100    2.2200    2.2300
    2.2400    2.2500    2.2600    2.2700    2.2800    2.2900    2.3000    2.3100
    2.3200    2.3300    2.3400    2.3500    2.3600    2.3700    2.3800    2.3900
    2.4000    2.4100    2.4200    2.4300    2.4400    2.4500    2.4600    2.4700
    2.4800    2.4900    2.5000    2.5100    2.5200    2.5300    2.5400    2.5500
    2.5600    2.5700    2.5800    2.5900    2.6000    2.6100    2.6200    2.6300
    2.6400    2.6500    2.6600    2.6700    2.6800    2.6900    2.7000    2.7100
    2.7200    2.7300    2.7400    2.7500    2.7600    2.7700    2.7800    2.7900
    2.8000    2.8100    2.8200    2.8300    2.8400    2.8500    2.8600    2.8700
    2.8800    2.8900    2.9000    2.9100    2.9200    2.9300    2.9400    2.9500
    2.9600    2.9700    2.9800    2.9900    3.0000    3.0100    3.0200    3.0300
    3.0400    3.0500    3.0600    3.0700    3.0800    3.0900    3.1000    3.1100
    3.1200    3.1300    3.1400    3.1500    3.1600    3.1700    3.1800    3.1900
    3.2000    3.2100    3.2200    3.2300    3.2400    3.2500    3.2600    3.2700
    3.2800    3.2900    3.3000    3.3100    3.3200    3.3300    3.3400    3.3500
    3.3600    3.3700    3.3800    3.3900    3.4000    3.4100    3.4200    3.4300
    3.4400    3.4500    3.4600    3.4700    3.4800    3.4900    3.5000    3.5100
    3.5200    3.5300    3.5400    3.5500    3.5600    3.5700    3.5800    3.5900
    3.6000    3.6100    3.6200    3.6300    3.6400    3.6500    3.6600    3.6700
    3.6800    3.6900    3.7000    3.7100    3.7200    3.7300    3.7400    3.7500
    3.7600    3.7700    3.7800    3.7900    3.8000    3.8100    3.8200    3.8300
    3.8400    3.8500    3.8600    3.8700    3.8800    3.8900    3.9000    3.9100
    3.9200    3.9300    3.9400    3.9500    3.9600    3.9700    3.9800    3.9900
    4.0000    4.0100    4.0200    4.0300    4.0400    4.0500    4.0600    4.0700
    4.0800    4.0900    4.1000    4.1100    4.1200    4.1300    4.1400    4.1500
    4.1600    4.1700    4.1800    4.1900    4.2000    4.2100    4.2200    4.2300
    4.2400    4.2500    4.2600    4.2700    4.2800    4.2900    4.3000    4.3100
    4.3200    4.3300    4.3400    4.3500    4.3600    4.3700    4.3800    4.3900
    4.4000    4.4100    4.4200    4.4300    4.4400    4.4500    4.4600    4.4700
    4.4800    4.4900    4.5000    4.5100    4.5200    4.5300    4.5400    4.5500
    4.5600    4.5700    4.5800    4.5900    4.6000    4.6100    4.6200    4.6300
    4.6400    4.6500    4.6600    4.6700    4.6800    4.6900    4.7000    4.7100
    4.7200    4.7300    4.7400    4.7500    4.7600    4.7700    4.7800    4.7900
    4.8000    4.8100    4.8200    4.8300    4.8400    4.8500    4.8600    4.8700
    4.8800    4.8900    4.9000    4.9100    4.9200    4.9300    4.9400    4.9500
    4.9600    4.9700    4.9800    4.9900    5.0000    5.0100    5.0200    5.0300
    5.0400    5.0500    5.0600    5.0700    5.0800    5.0900    5.1000    5.1100
    5.1200    5.1300    5.1400    5.1500    5.1600    5.1700    5.1800    5.1900
    5.2000    5.2100    5.2200    5.2300    5.2400    5.2500    5.2600    5.2700
    5.2800    5.2900    5.3000    5.3100    5.3200    5.3300    5.3400    5.3500
    5.3600    5.3700    5.3800    5.3900    5.4000    5.4100    5.4200    5.4300
    5.4400    5.4500    5.4600    5.4700    5.4800    5.4900    5.5000    5.5100
    5.5200    5.5300    5.5400    5.5500    5.5600    5.5700    5.5800    5.5900
    5.6000    5.6100    5.6200    5.6300    5.6400    5.6500    5.6600    5.6700
    5.6800    5.6900    5.7000    5.7100    5.7200    5.7300    5.7400    5.7500
    5.7600    5.7700    5.7800    5.7900    5.8000    5.8100    5.8200    5.8300
    5.8400    5.8500    5.8600    5.8700    5.8800    5.8900    5.9000    5.9100
    5.9200    5.9300    5.9400    5.9500    5.9600    5.9700    5.9800    5.9900
    6.0000    6.0100
   </PP_R>
   <PP_RAB type="real"  size=" 602" columns="8">
    0.0100    0.0100    0.0100    0.0100    0.0100    0.0100    0.0100    0.0100
    0.0100    0.0100    0.0100    0.0100    0.0100    0.0100    0.0100    0.0100
    0.0100    0.0100    0.0100    0.0100    0.0100    0.0100    0.0100    0.0100
    0.0100    0.0100    0.0100    0.0100    0.0100    0.0100    0.0100    0.0100
    0.0100    0.0100    0.0100    0.0100    0.0100    0.0100    0.0100    0.0100
    0.0100    0.0100    0.0100    0.0100    0.0100    0.0100    0.0100    0.0100
    0.0100    0.0100    0.0100    0.0100    0.0100    0.0100    0.0100    0.0100
    0.0100    0.0100    0.0100    0.0100    0.0100    0.0100    0.0100    0.0100
    0.0100    0.0100    0.0100    0.0100    0.0100    0.0100    0.0100    0.0100
    0.0100    0.0100    0.0100    0.0100    0.0100    0.0100    0.0100    0.0100
    0.0100    0.0100    0.0100    0.0100    0.0100    0.0100    0.0100    0.0100
    0.0100    0.0100    0.0100    0.0100    0.0100    0.0100    0.0100    0.0100
    0.0100    0.0100    0.0100    0.0100    0.0100    0.0100    0.0100    0.0100
    0.0100    0.0100    0.0100    0.0100    0.0100    0.0100    0.0100    0.0100
    0.0100    0.0100    0.0100    0.0100    0.0100    0.0100    0.0100    0.0100
    0.0100    0.0100    0.0100    0.0100    0.0100    0.0100    0.0100    0.0100
    0.0100    0.0100    0.0100    0.0100    0.0100    0.0100    0.0100    0.0100
    0.0100    0.0100    0.0100    0.0100    0.0100    0.0100    0.0100    0.0100
    0.0100    0.0100    0.0100    0.0100    0.0100    0.0100    0.0100    0.0100
    0.0100    0.0100    0.0100    0.0100    0.0100    0.0100    0.0100    0.0100
    0.0100    0.0100    0.0100    0.0100    0.0100    0.0100    0.0100    0.0100
    0.0100    0.0100    0.0100    0.0100    0.0100    0.0100    0.0100    0.0100
    0.0100    0.0100    0.0100    0.0100    0.0100    0.0100    0.0100    0.0100
    0.0100    0.0100    0.0100    0.0100    0.0100    0.0100    0.0100    0.0100
    0.0100    0.0100    0.0100    0.0100    0.0100    0.0100    0.0100    0.0100
    0.0100    0.0100    0.0100    0.0100    0.0100    0.0100    0.0100    0.0100
    0.0100    0.0100    0.0100    0.0100    0.0100    0.0100    0.0100    0.0100
    0.0100    0.0100    0.0100    0.0100    0.0100    0.0100    0.0100    0.0100
    0.0100    0.0100    0.0100    0.0100    0.0100    0.0100    0.0100    0.0100
    0.0100    0.0100    0.0100    0.0100    0.0100    0.0100    0.0100    0.0100
    0.0100    0.0100    0.0100    0.0100    0.0100    0.0100    0.0100    0.0100
    0.0100    0.0100    0.0100    0.0100    0.0100    0.0100    0.0100    0.0100
    0.0100    0.0100    0.0100    0.0100    0.0100    0.0100    0.0100    0.0100
    0.0100    0.0100    0.0100    0.0100    0.0100    0.0100    0.0100    0.0100
    0.0100    0.0100    0.0100    0.0100    0.0100    0.0100    0.0100    0.0100
    0.0100    0.0100    0.0100    0.0100    0.0100    0.0100    0.0100    0.0100
    0.0100    0.0100    0.0100    0.0100    0.0100    0.0100    0.0100    0.0100
    0.0100    0.0100    0.0100    0.0100    0.0100    0.0100    0.0100    0.0100
    0.0100    0.0100    0.0100    0.0100    0.0100    0.0100    0.0100    0.0100
    0.0100    0.0100    0.0100    0.0100    0.0100    0.0100    0.0100    0.0100
    0.0100    0.0100    0.0100    0.0100    0.0100    0.0100    0.0100    0.0100
    0.0100    0.0100    0.0100    0.0100    0.0100    0.0100    0.0100    0.0100
    0.0100    0.0100    0.0100    0.0100    0.0100    0.0100    0.0100    0.0100
    0.0100    0.0100    0.0100    0.0100    0.0100    0.0100    0.0100    0.0100
    0.0100    0.0100    0.0100    0.0100    0.0100    0.0100    0.0100    0.0100
    0.0100    0.0100    0.0100    0.0100    0.0100    0.0100    0.0100    0.0100
    0.0100    0.0100    0.0100    0.0100    0.0100    0.0100    0.0100    0.0100
    0.0100    0.0100    0.0100    0.0100    0.0100    0.0100    0.0100    0.0100
    0.0100    0.0100    0.0100    0.0100    0.0100    0.0100    0.0100    0.0100
    0.0100    0.0100    0.0100    0.0100    0.0100    0.0100    0.0100    0.0100
    0.0100    0.0100    0.0100    0.0100    0.0100    0.0100    0.0100    0.0100
    0.0100    0.0100    0.0100    0.0100    0.0100    0.0100    0.0100    0.0100
    0.0100    0.0100    0.0100    0.0100    0.0100    0.0100    0.0100    0.0100
    0.0100    0.0100    0.0100    0.0100    0.0100    0.0100    0.0100    0.0100
    0.0100    0.0100    0.0100    0.0100    0.0100    0.0100    0.0100    0.0100
    0.0100    0.0100    0.0100    0.0100    0.0100    0.0100    0.0100    0.0100
    0.0100    0.0100    0.0100    0.0100    0.0100    0.0100    0.0100    0.0100
    0.0100    0.0100    0.0100    0.0100    0.0100    0.0100    0.0100    0.0100
    0.0100    0.0100    0.0100    0.0100    0.0100    0.0100    0.0100    0.0100
    0.0100    0.0100    0.0100    0.0100    0.0100    0.0100    0.0100    0.0100
    0.0100    0.0100    0.0100    0.0100    0.0100    0.0100    0.0100    0.0100
    0.0100    0.0100    0.0100    0.0100    0.0100    0.0100    0.0100    0.0100
    0.0100    0.0100    0.0100    0.0100    0.0100    0.0100    0.0100    0.0100
    0.0100    0.0100    0.0100    0.0100    0.0100    0.0100    0.0100    0.0100
    0.0100    0.0100    0.0100    0.0100    0.0100    0.0100    0.0100    0.0100
    0.0100    0.0100    0.0100    0.0100    0.0100    0.0100    0.0100    0.0100
    0.0100    0.0100    0.0100    0.0100    0.0100    0.0100    0.0100    0.0100
    0.0100    0.0100    0.0100    0.0100    0.0100    0.0100    0.0100    0.0100
    0.0100    0.0100    0.0100    0.0100    0.0100    0.0100    0.0100    0.0100
    0.0100    0.0100    0.0100    0.0100    0.0100    0.0100    0.0100    0.0100
    0.0100    0.0100    0.0100    0.0100    0.0100    0.0100    0.0100    0.0100
    0.0100    0.0100    0.0100    0.0100    0.0100    0.0100    0.0100    0.0100
    0.0100    0.0100    0.0100    0.0100    0.0100    0.0100    0.0100    0.0100
    0.0100    0.0100    0.0100    0.0100    0.0100    0.0100    0.0100    0.0100
    0.0100    0.0100    0.0100    0.0100    0.0100    0.0100    0.0100    0.0100
    0.0100    0.0100
   </PP_RAB>
 </PP_MESH>
  <PP_LOCAL type="real"  size=" 602" columns="4">
   -3.9908486900E+01   -3.9908508672E+01   -3.9909116568E+01   -3.9909617297E+01
   -3.9909317567E+01   -3.9907380009E+01   -3.9902921547E+01   -3.9895102518E+01
   -3.9883194471E+01   -3.9866621455E+01   -3.9844975689E+01   -3.9818012612E+01
   -3.9785632014E+01   -3.9747851765E+01   -3.9704779457E+01   -3.9656585566E+01
   -3.9603480248E+01   -3.9545694620E+01   -3.9483466554E+01   -3.9417030532E+01
   -3.9346610894E+01   -3.9272417728E+01   -3.9194644756E+01   -3.9113468604E+01
   -3.9029049026E+01   -3.8941529713E+01   -3.8851039420E+01   -3.8757693257E+01
   -3.8661594010E+01   -3.8562833408E+01   -3.8461493314E+01   -3.8357646803E+01
   -3.8251359136E+01   -3.8142688627E+01   -3.8031687375E+01   -3.7918401973E+01
   -3.7802874063E+01   -3.7685140891E+01   -3.7565235754E+01   -3.7443188430E+01
   -3.7319025563E+01   -3.7192771016E+01   -3.7064446193E+01   -3.6934070351E+01
   -3.6801660885E+01   -3.6667233612E+01   -3.6530803038E+01   -3.6392382615E+01
   -3.6251985002E+01   -3.6109622307E+01   -3.5965306333E+01   -3.5819048824E+01
   -3.5670861689E+01   -3.5520757244E+01   -3.5368748430E+01   -3.5214849023E+01
   -3.5059073868E+01   -3.4901439029E+01   -3.4741962044E+01   -3.4580662021E+01
   -3.4417559871E+01   -3.4252678402E+01   -3.4086042439E+01   -3.3917679001E+01
   -3.3747617290E+01   -3.3575888809E+01   -3.3402527447E+01   -3.3227569429E+01
   -3.3051053319E+01   -3.2873020104E+01   -3.2693513075E+01   -3.2512577786E+01
   -3.2330261991E+01   -3.2146615537E+01   -3.1961690359E+01   -3.1775540271E+01
   -3.1588220887E+01   -3.1399789491E+01   -3.1210304906E+01   -3.1019827360E+01
   -3.0828418349E+01   -3.0636140496E+01   -3.0443057416E+01   -3.0249233574E+01
   -3.0054734159E+01   -2.9859624951E+01   -2.9663972195E+01   -2.9467842484E+01
   -2.9271302644E+01   -2.9074419627E+01   -2.8877260407E+01   -2.8679891886E+01
   -2.8482380802E+01   -2.8284793649E+01   -2.8087196591E+01   -2.7889655397E+01
   -2.7692235365E+01   -2.7495001269E+01   -2.7298017309E+01   -2.7101346997E+01
   -2.6905053158E+01   -2.6709197870E+01   -2.6513842408E+01   -2.6319047212E+01
   -2.6124871898E+01   -2.5931375039E+01   -2.5738614275E+01   -2.5546646245E+01
   -2.5355526550E+01   -2.5165309822E+01   -2.4976049338E+01   -2.4787797313E+01
   -2.4600604773E+01   -2.4414521677E+01   -2.4229596432E+01   -2.4045876202E+01
   -2.3863406867E+01   -2.3682233147E+01   -2.3502397862E+01   -2.3323942584E+01
   -2.3146907623E+01   -2.2971331504E+01   -2.2797251039E+01   -2.2624701744E+01
   -2.2453717522E+01   -2.2284330075E+01   -2.2116569834E+01   -2.1950465640E+01
   -2.1786043777E+01   -2.1623329336E+01   -2.1462345606E+01   -2.1303113172E+01
   -2.1145651584E+01   -2.0989978016E+01   -2.0836107134E+01   -2.0684052797E+01
   -2.0533825424E+01   -2.0385433825E+01   -2.0238885473E+01   -2.0094183927E+01
   -1.9951332302E+01   -1.9810330365E+01   -1.9671175602E+01   -1.9533864577E+01
   -1.9398389211E+01   -1.9264741572E+01   -1.9132909392E+01   -1.9002878990E+01
   -1.8874634591E+01   -1.8748156418E+01   -1.8623425105E+01   -1.8500415162E+01
   -1.8379102307E+01   -1.8259456615E+01   -1.8141448029E+01   -1.8025042163E+01
   -1.7910204787E+01   -1.7796900128E+01   -1.7685094294E+01   -1.7574753298E+01
   -1.7465845149E+01   -1.7358337318E+01   -1.7252199703E+01   -1.7147401220E+01
   -1.7043913568E+01   -1.6941707198E+01   -1.6840755464E+01   -1.6741030431E+01
   -1.6642507014E+01   -1.6545158850E+01   -1.6448962410E+01   -1.6353892816E+01
   -1.6259928083E+01   -1.6167044719E+01   -1.6075222195E+01   -1.5984438476E+01
   -1.5894674244E+01   -1.5805908954E+01   -1.5718124334E+01   -1.5631301307E+01
   -1.5545422505E+01   -1.5460470273E+01   -1.5376428016E+01   -1.5293279435E+01
   -1.5211008600E+01   -1.5129600488E+01   -1.5049039743E+01   -1.4969312525E+01
   -1.4890403994E+01   -1.4812301244E+01   -1.4734990345E+01   -1.4658458773E+01
   -1.4582693686E+01   -1.4507682803E+01   -1.4433414356E+01   -1.4359876262E+01
   -1.4287057722E+01   -1.4214947032E+01   -1.4143533966E+01   -1.4072807721E+01
   -1.4002758137E+01   -1.3933375501E+01   -1.3864649657E+01   -1.3796571831E+01
   -1.3729132358E+01   -1.3662322748E+01   -1.3596134375E+01   -1.3530558626E+01
   -1.3465587933E+01   -1.3401213874E+01   -1.3337429331E+01   -1.3274226837E+01
   -1.3211599040E+01   -1.3149539463E+01   -1.3088040901E+01   -1.3027097194E+01
   -1.2966701980E+01   -1.2906848821E+01   -1.2847532072E+01   -1.2788745567E+01
   -1.2730483668E+01   -1.2672740845E+01   -1.2615511272E+01   -1.2558789746E+01
   -1.2502570792E+01   -1.2446849018E+01   -1.2391619236E+01   -1.2336876115E+01
   -1.2282614454E+01   -1.2228829064E+01   -1.2175514719E+01   -1.2122666235E+01
   -1.2070278426E+01   -1.2018346110E+01   -1.1966863994E+01   -1.1915826848E+01
   -1.1865229408E+01   -1.1815066368E+01   -1.1765332433E+01   -1.1716022330E+01
   -1.1667130786E+01   -1.1618652523E+01   -1.1570582269E+01   -1.1522914755E+01
   -1.1475644611E+01   -1.1428766728E+01   -1.1382275925E+01   -1.1336166838E+01
   -1.1290434590E+01   -1.1245074111E+01   -1.1200080102E+01   -1.1155448008E+01
   -1.1111172973E+01   -1.1067249820E+01   -1.1023674424E+01   -1.0980442242E+01
   -1.0937548296E+01   -1.0894988934E+01   -1.0852760010E+01   -1.0810856838E+01
   -1.0769276174E+01   -1.0728014267E+01   -1.0687067008E+01   -1.0646431162E+01
   -1.0606103275E+01   -1.0566079701E+01   -1.0526357124E+01   -1.0486932216E+01
   -1.0447801435E+01   -1.0408961544E+01   -1.0370409456E+01   -1.0332141869E+01
   -1.0294155570E+01   -1.0256447655E+01   -1.0219015036E+01   -1.0181854496E+01
   -1.0144963325E+01   -1.0108338607E+01   -1.0071977231E+01   -1.0035876550E+01
   -1.0000033822E+01   -9.9644461469E+00   -9.9291108158E+00   -9.8940252931E+00
   -9.8591868936E+00   -9.8245928306E+00   -9.7902407648E+00   -9.7561281694E+00
   -9.7222523542E+00   -9.6886109819E+00   -9.6552017027E+00   -9.6220220414E+00
   -9.5890695344E+00   -9.5563420366E+00   -9.5238372509E+00   -9.4915527123E+00
   -9.4594863342E+00   -9.4276359692E+00   -9.3959993686E+00   -9.3645742793E+00
   -9.3333587620E+00   -9.3023507289E+00   -9.2715479500E+00   -9.2409484846E+00
   -9.2105504039E+00   -9.1803516995E+00   -9.1503502308E+00   -9.1205442745E+00
   -9.0909319325E+00   -9.0615112227E+00   -9.0322802570E+00   -9.0032373371E+00
   -8.9743806536E+00   -8.9457082606E+00   -8.9172184919E+00   -8.8889096755E+00
   -8.8607800862E+00   -8.8328278247E+00   -8.8050514134E+00   -8.7774492116E+00
   -8.7500195401E+00   -8.7227606578E+00   -8.6956711404E+00   -8.6687494200E+00
   -8.6419938657E+00   -8.6154028816E+00   -8.5889750875E+00   -8.5627089883E+00
   -8.5366030077E+00   -8.5106556702E+00   -8.4848656434E+00   -8.4592315018E+00
   -8.4337517293E+00   -8.4084249463E+00   -8.3832498732E+00   -8.3582251512E+00
   -8.3333493288E+00   -8.3086210997E+00   -8.2840392422E+00   -8.2596024607E+00
   -8.2353093732E+00   -8.2111587253E+00   -8.1871493577E+00   -8.1632800354E+00
   -8.1395494501E+00   -8.1159563790E+00   -8.0924997302E+00   -8.0691783259E+00
   -8.0459909361E+00   -8.0229363511E+00   -8.0000135498E+00   -7.9772214094E+00
   -7.9545587821E+00   -7.9320244544E+00   -7.9096174790E+00   -7.8873367853E+00
   -7.8651813029E+00   -7.8431498267E+00   -7.8212414578E+00   -7.7994551846E+00
   -7.7777899863E+00   -7.7562447467E+00   -7.7348185235E+00   -7.7135103918E+00
   -7.6923193785E+00   -7.6712444617E+00   -7.6502846405E+00   -7.6294390786E+00
   -7.6087068482E+00   -7.5880870217E+00   -7.5675785423E+00   -7.5471806479E+00
   -7.5268924584E+00   -7.5067130892E+00   -7.4866415834E+00   -7.4666770883E+00
   -7.4468188229E+00   -7.4270659436E+00   -7.4074175996E+00   -7.3878728371E+00
   -7.3684309719E+00   -7.3490911998E+00   -7.3298527169E+00   -7.3107146520E+00
   -7.2916762259E+00   -7.2727367332E+00   -7.2538954075E+00   -7.2351514822E+00
   -7.2165040769E+00   -7.1979525631E+00   -7.1794962183E+00   -7.1611343119E+00
   -7.1428660773E+00   -7.1246907426E+00   -7.1066076969E+00   -7.0886162434E+00
   -7.0707156854E+00   -7.0529052560E+00   -7.0351842975E+00   -7.0175521951E+00
   -7.0000082844E+00   -6.9825519012E+00   -6.9651822857E+00   -6.9478988742E+00
   -6.9307010533E+00   -6.9135881896E+00   -6.8965596478E+00   -6.8796146879E+00
   -6.8627528147E+00   -6.8459734241E+00   -6.8292759125E+00   -6.8126596596E+00
   -6.7961239882E+00   -6.7796684157E+00   -6.7632923666E+00   -6.7469952651E+00
   -6.7307765118E+00   -6.7146354759E+00   -6.6985716925E+00   -6.6825846127E+00
   -6.6666736876E+00   -6.6508383442E+00   -6.6350779819E+00   -6.6193921585E+00
   -6.6037803507E+00   -6.5882420352E+00   -6.5727766701E+00   -6.5573836706E+00
   -6.5420626216E+00   -6.5268130242E+00   -6.5116343794E+00   -6.4965261816E+00
   -6.4814878474E+00   -6.4665189934E+00   -6.4516191440E+00   -6.4367878233E+00
   -6.4220245558E+00   -6.4073287788E+00   -6.3927001125E+00   -6.3781381138E+00
   -6.3636423293E+00   -6.3492123054E+00   -6.3348475249E+00   -6.3205475787E+00
   -6.3063120673E+00   -6.2921405583E+00   -6.2780326192E+00   -6.2639877831E+00
   -6.2500055996E+00   -6.2360857160E+00   -6.2222277202E+00   -6.2084311997E+00
   -6.1946957420E+00   -6.1810208458E+00   -6.1674062073E+00   -6.1538514334E+00
   -6.1403561311E+00   -6.1269199074E+00   -6.1135423169E+00   -6.1002229915E+00
   -6.0869615941E+00   -6.0737577502E+00   -6.0606110848E+00   -6.0475212152E+00
   -6.0344876979E+00   -6.0215102538E+00   -6.0085885257E+00   -5.9957221563E+00
   -5.9829107883E+00   -5.9701540183E+00   -5.9574515041E+00   -5.9448029449E+00
   -5.9322079999E+00   -5.9196663287E+00   -5.9071775906E+00   -5.8947413694E+00
   -5.8823574072E+00   -5.8700253863E+00   -5.8577449820E+00   -5.8455158696E+00
   -5.8333377056E+00   -5.8212101245E+00   -5.8091328794E+00   -5.7971056605E+00
   -5.7851281583E+00   -5.7732000632E+00   -5.7613210278E+00   -5.7494907445E+00
   -5.7377089603E+00   -5.7259753800E+00   -5.7142897085E+00   -5.7026516507E+00
   -5.6910608611E+00   -5.6795170753E+00   -5.6680200400E+00   -5.6565694735E+00
   -5.6451650946E+00   -5.6338066217E+00   -5.6224937168E+00   -5.6112261453E+00
   -5.6000036582E+00   -5.5888259872E+00   -5.5776928639E+00   -5.5666040202E+00
   -5.5555591299E+00   -5.5445579754E+00   -5.5336003175E+00   -5.5226859002E+00
   -5.5118144679E+00   -5.5009857645E+00   -5.4901994808E+00   -5.4794554042E+00
   -5.4687533097E+00   -5.4580929534E+00   -5.4474740914E+00   -5.4368964799E+00
   -5.4263598301E+00   -5.4158639236E+00   -5.4054085541E+00   -5.3949934891E+00
   -5.3846184960E+00   -5.3742833423E+00   -5.3639877645E+00   -5.3537315273E+00
   -5.3435144473E+00   -5.3333363029E+00   -5.3231968723E+00   -5.3130959339E+00
   -5.3030332531E+00   -5.2930085684E+00   -5.2830217228E+00   -5.2730725049E+00
   -5.2631607033E+00   -5.2532861068E+00   -5.2434485039E+00   -5.2336476273E+00
   -5.2238833200E+00   -5.2141553903E+00   -5.2044636366E+00   -5.1948078574E+00
   -5.1851878513E+00   -5.1756033878E+00   -5.1660542624E+00   -5.1565403188E+00
   -5.1470613648E+00   -5.1376172083E+00   -5.1282076572E+00   -5.1188325194E+00
   -5.1094915430E+00   -5.1001846014E+00   -5.0909115139E+00   -5.0816720974E+00
   -5.0724661688E+00   -5.0632935448E+00   -5.0541540179E+00   -5.0450473952E+00
   -5.0359735393E+00   -5.0269322755E+00   -5.0179234293E+00   -5.0089468259E+00
   -5.0000022907E+00   -4.9910896043E+00   -4.9822086275E+00   -4.9733592091E+00
   -4.9645411824E+00   -4.9557543811E+00   -4.9469986387E+00   -4.9382737869E+00
   -4.9295796047E+00   -4.9209159896E+00   -4.9122827827E+00   -4.9036798255E+00
   -4.8951069590E+00   -4.8865640247E+00   -4.8780508508E+00   -4.8695672487E+00
   -4.8611131113E+00   -4.8526882873E+00   -4.8442926252E+00   -4.8359259738E+00
   -4.8275881817E+00   -4.8192790785E+00   -4.8109984971E+00   -4.8027463303E+00
   -4.7945224336E+00   -4.7863266628E+00   -4.7781588735E+00   -4.7700189216E+00
   -4.7619066424E+00   -4.7538218797E+00   -4.7457645305E+00   -4.7377344572E+00
   -4.7297315221E+00   -4.7217555877E+00   -4.7138065165E+00   -4.7058841537E+00
   -4.6979883445E+00   -4.6901189939E+00   -4.6822759709E+00   -4.6744591442E+00
   -4.6666683827E+00   -4.6589035552E+00
  </PP_LOCAL>
 <PP_NONLOCAL>
   <PP_BETA.1
       type="real"
       size=" 602"
       columns="4"
       index="1"
       angular_momentum="0"
       cutoff_radius_index=" 262"
       cutoff_radius="    2.6100000000E+00" >
    0.0000000000E+00   -4.9029187849E-02   -9.8002804256E-02   -1.4686531134E-01
   -1.9556123856E-01   -2.4403521698E-01   -2.9223201415E-01   -3.4009656995E-01
   -3.8757403348E-01   -4.3460980132E-01   -4.8114955720E-01   -5.2713931343E-01
   -5.7252545414E-01   -6.1725478052E-01   -6.6127455816E-01   -7.0453256675E-01
   -7.4697715197E-01   -7.8855727997E-01   -8.2922259421E-01   -8.6892347497E-01
   -9.0761110123E-01   -9.4523751528E-01   -9.8175568967E-01   -1.0171195967E+00
   -1.0512842804E+00   -1.0842059303E+00   -1.1158419582E+00   -1.1461510757E+00
   -1.1750933751E+00   -1.2026304102E+00   -1.2287252798E+00   -1.2533427119E+00
   -1.2764491485E+00   -1.2980128306E+00   -1.3180038859E+00   -1.3363944114E+00
   -1.3531585627E+00   -1.3682726341E+00   -1.3817151456E+00   -1.3934669232E+00
   -1.4035111781E+00   -1.4118335849E+00   -1.4184223559E+00   -1.4232683127E+00
   -1.4263649537E+00   -1.4277085180E+00   -1.4272980442E+00   -1.4251354250E+00
   -1.4212254556E+00   -1.4155758736E+00   -1.4081974051E+00   -1.3991037870E+00
   -1.3883117881E+00   -1.3758412363E+00   -1.3617150180E+00   -1.3459590787E+00
   -1.3286024251E+00   -1.3096770944E+00   -1.2892181463E+00   -1.2672636146E+00
   -1.2438544763E+00   -1.2190345938E+00   -1.1928506562E+00   -1.1653521095E+00
   -1.1365910784E+00   -1.1066222779E+00   -1.0755029109E+00   -1.0432925677E+00
   -1.0100531188E+00   -9.7584856659E-01   -9.4074493058E-01   -9.0481010556E-01
   -8.6811371197E-01   -8.3072695628E-01   -7.9272241928E-01   -7.5417393215E-01
   -7.1515638734E-01   -6.7574555714E-01   -6.3601790720E-01   -5.9605040564E-01
   -5.5592032819E-01   -5.1570506029E-01   -4.7548189652E-01   -4.3532783826E-01
   -3.9531939021E-01   -3.5553235644E-01   -3.1604163681E-01   -2.7692102435E-01