<UPF version="2.0.1">
  <PP_INFO>

 This pseudopotential file has been produced using the code
 ONCVPSP  (Optimized Norm-Conservinng Vanderbilt PSeudopotential)
 scalar-relativistic version 2.1.1, 03/26/2014 by D. R. Hamann
 The code is available through a link at URL www.mat-simresearch.com.
 Documentation with the package provides a full discription of the
 input data below.


 While it is not required under the terms of the GNU GPL, it is
 suggested that you cite D. R. Hamann, Phys. Rev. B 88, 085117 (2013)
 in any publication using these pseudopotentials.


 Copyright 2015 The Regents of the University of California
 
 This work is licensed under the Creative Commons Attribution-ShareAlike 
 4.0 International License. To view a copy of this license, visit 
 http://creativecommons.org/licenses/by-sa/4.0/ or send a letter to 
 Creative Commons, PO Box 1866, Mountain View, CA 94042, USA.
 
 This pseudopotential is part of the Schlipf-Gygi norm-conserving 
 pseudopotential library. Its construction parameters were tuned to 
 reproduce materials of a training set with very high accuracy and 
 should be suitable as a general purpose pseudopotential to treat a 
 variety of different compounds. For details of the construction and 
 testing of the pseudopotential please refer to:
 
 [insert reference to paper here]
 
 We kindly ask that you include this reference in all publications 
 associated to this pseudopotential.


    <PP_INPUTFILE>
# ATOM AND REFERENCE CONFIGURATION
# atsym  z    nc    nv    iexc   psfile
  Ni 28.00     3     4     4      upf
#
#   n    l    f        energy (Ha)
    1    0    2.00
    2    0    2.00
    2    1    6.00
    3    0    2.00
    3    1    6.00
    4    0    2.00
    3    2    8.00
#
# PSEUDOPOTENTIAL AND OPTIMIZATION
# lmax
    2
#
#   l,   rc,     ep,   ncon, nbas, qcut
    0   2.18311  -4.08136    5    8   6.78087
    1   2.18311  -2.62346    5    8   7.57642
    2   2.26265  -0.32612    5    8   8.25154
#
# LOCAL POTENTIAL
# lloc, lpopt,  rc(5),   dvloc0
    4    5   1.86951      0.00000
#
# VANDERBILT-KLEINMAN-BYLANDER PROJECTORs
# l, nproj, debl
    0    2   3.87398
    1    2   3.05568
    2    2   1.27575
#
# MODEL CORE CHARGE
# icmod, fcfact
    0   0.00000
#
# LOG DERIVATIVE ANALYSIS
# epsh1, epsh2, depsh
   -5.00    3.00    0.02
#
# OUTPUT GRID
# rlmax, drl
    6.00    0.01
#
# TEST CONFIGURATIONS
# ncnf
    0
# nvcnf
#   n    l    f
    </PP_INPUTFILE>
  </PP_INFO>
  <!--                               -->
  <!-- END OF HUMAN READABLE SECTION -->
  <!--                               -->
    <PP_HEADER
       generated="Generated using ONCVPSP code by D. R. Hamann"
       author="Martin Schlipf and Francois Gygi"
       date="150105"
       comment=""
       element="Ni"
       pseudo_type="NC"
       relativistic="scalar"
       is_ultrasoft="F"
       is_paw="F"
       is_coulomb="F"
       has_so="F"
       has_wfc="F"
       has_gipaw="F"
       core_correction="F"
       functional="PBE"
       z_valence="   18.00"
       total_psenergy="  -1.53893931252E+02"
       rho_cutoff="   6.01000000000E+00"
       l_max="2"
       l_local="-1"
       mesh_size="   602"
       number_of_wfc="0"
       number_of_proj="6"/>
 <PP_MESH>
   <PP_R type="real"  size=" 602" columns="8">
    0.0000    0.0100    0.0200    0.0300    0.0400    0.0500    0.0600    0.0700
    0.0800    0.0900    0.1000    0.1100    0.1200    0.1300    0.1400    0.1500
    0.1600    0.1700    0.1800    0.1900    0.2000    0.2100    0.2200    0.2300
    0.2400    0.2500    0.2600    0.2700    0.2800    0.2900    0.3000    0.3100
    0.3200    0.3300    0.3400    0.3500    0.3600    0.3700    0.3800    0.3900
    0.4000    0.4100    0.4200    0.4300    0.4400    0.4500    0.4600    0.4700
    0.4800    0.4900    0.5000    0.5100    0.5200    0.5300    0.5400    0.5500
    0.5600    0.5700    0.5800    0.5900    0.6000    0.6100    0.6200    0.6300
    0.6400    0.6500    0.6600    0.6700    0.6800    0.6900    0.7000    0.7100
    0.7200    0.7300    0.7400    0.7500    0.7600    0.7700    0.7800    0.7900
    0.8000    0.8100    0.8200    0.8300    0.8400    0.8500    0.8600    0.8700
    0.8800    0.8900    0.9000    0.9100    0.9200    0.9300    0.9400    0.9500
    0.9600    0.9700    0.9800    0.9900    1.0000    1.0100    1.0200    1.0300
    1.0400    1.0500    1.0600    1.0700    1.0800    1.0900    1.1000    1.1100
    1.1200    1.1300    1.1400    1.1500    1.1600    1.1700    1.1800    1.1900
    1.2000    1.2100    1.2200    1.2300    1.2400    1.2500    1.2600    1.2700
    1.2800    1.2900    1.3000    1.3100    1.3200    1.3300    1.3400    1.3500
    1.3600    1.3700    1.3800    1.3900    1.4000    1.4100    1.4200    1.4300
    1.4400    1.4500    1.4600    1.4700    1.4800    1.4900    1.5000    1.5100
    1.5200    1.5300    1.5400    1.5500    1.5600    1.5700    1.5800    1.5900
    1.6000    1.6100    1.6200    1.6300    1.6400    1.6500    1.6600    1.6700
    1.6800    1.6900    1.7000    1.7100    1.7200    1.7300    1.7400    1.7500
    1.7600    1.7700    1.7800    1.7900    1.8000    1.8100    1.8200    1.8300
    1.8400    1.8500    1.8600    1.8700    1.8800    1.8900    1.9000    1.9100
    1.9200    1.9300    1.9400    1.9500    1.9600    1.9700    1.9800    1.9900
    2.0000    2.0100    2.0200    2.0300    2.0400    2.0500    2.0600    2.0700
    2.0800    2.0900    2.1000    2.1100    2.1200    2.1300    2.1400    2.1500
    2.1600    2.1700    2.1800    2.1900    2.2000    2.2100    2.2200    2.2300
    2.2400    2.2500    2.2600    2.2700    2.2800    2.2900    2.3000    2.3100
    2.3200    2.3300    2.3400    2.3500    2.3600    2.3700    2.3800    2.3900
    2.4000    2.4100    2.4200    2.4300    2.4400    2.4500    2.4600    2.4700
    2.4800    2.4900    2.5000    2.5100    2.5200    2.5300    2.5400    2.5500
    2.5600    2.5700    2.5800    2.5900    2.6000    2.6100    2.6200    2.6300
    2.6400    2.6500    2.6600    2.6700    2.6800    2.6900    2.7000    2.7100
    2.7200    2.7300    2.7400    2.7500    2.7600    2.7700    2.7800    2.7900
    2.8000    2.8100    2.8200    2.8300    2.8400    2.8500    2.8600    2.8700
    2.8800    2.8900    2.9000    2.9100    2.9200    2.9300    2.9400    2.9500
    2.9600    2.9700    2.9800    2.9900    3.0000    3.0100    3.0200    3.0300
    3.0400    3.0500    3.0600    3.0700    3.0800    3.0900    3.1000    3.1100
    3.1200    3.1300    3.1400    3.1500    3.1600    3.1700    3.1800    3.1900
    3.2000    3.2100    3.2200    3.2300    3.2400    3.2500    3.2600    3.2700
    3.2800    3.2900    3.3000    3.3100    3.3200    3.3300    3.3400    3.3500
    3.3600    3.3700    3.3800    3.3900    3.4000    3.4100    3.4200    3.4300
    3.4400    3.4500    3.4600    3.4700    3.4800    3.4900    3.5000    3.5100
    3.5200    3.5300    3.5400    3.5500    3.5600    3.5700    3.5800    3.5900
    3.6000    3.6100    3.6200    3.6300    3.6400    3.6500    3.6600    3.6700
    3.6800    3.6900    3.7000    3.7100    3.7200    3.7300    3.7400    3.7500
    3.7600    3.7700    3.7800    3.7900    3.8000    3.8100    3.8200    3.8300
    3.8400    3.8500    3.8600    3.8700    3.8800    3.8900    3.9000    3.9100
    3.9200    3.9300    3.9400    3.9500    3.9600    3.9700    3.9800    3.9900
    4.0000    4.0100    4.0200    4.0300    4.0400    4.0500    4.0600    4.0700
    4.0800    4.0900    4.1000    4.1100    4.1200    4.1300    4.1400    4.1500
    4.1600    4.1700    4.1800    4.1900    4.2000    4.2100    4.2200    4.2300
    4.2400    4.2500    4.2600    4.2700    4.2800    4.2900    4.3000    4.3100
    4.3200    4.3300    4.3400    4.3500    4.3600    4.3700    4.3800    4.3900
    4.4000    4.4100    4.4200    4.4300    4.4400    4.4500    4.4600    4.4700
    4.4800    4.4900    4.5000    4.5100    4.5200    4.5300    4.5400    4.5500
    4.5600    4.5700    4.5800    4.5900    4.6000    4.6100    4.6200    4.6300
    4.6400    4.6500    4.6600    4.6700    4.6800    4.6900    4.7000    4.7100
    4.7200    4.7300    4.7400    4.7500    4.7600    4.7700    4.7800    4.7900
    4.8000    4.8100    4.8200    4.8300    4.8400    4.8500    4.8600    4.8700
    4.8800    4.8900    4.9000    4.9100    4.9200    4.9300    4.9400    4.9500
    4.9600    4.9700    4.9800    4.9900    5.0000    5.0100    5.0200    5.0300
    5.0400    5.0500    5.0600    5.0700    5.0800    5.0900    5.1000    5.1100
    5.1200    5.1300    5.1400    5.1500    5.1600    5.1700    5.1800    5.1900
    5.2000    5.2100    5.2200    5.2300    5.2400    5.2500    5.2600    5.2700
    5.2800    5.2900    5.3000    5.3100    5.3200    5.3300    5.3400    5.3500
    5.3600    5.3700    5.3800    5.3900    5.4000    5.4100    5.4200    5.4300
    5.4400    5.4500    5.4600    5.4700    5.4800    5.4900    5.5000    5.5100
    5.5200    5.5300    5.5400    5.5500    5.5600    5.5700    5.5800    5.5900
    5.6000    5.6100    5.6200    5.6300    5.6400    5.6500    5.6600    5.6700
    5.6800    5.6900    5.7000    5.7100    5.7200    5.7300    5.7400    5.7500
    5.7600    5.7700    5.7800    5.7900    5.8000    5.8100    5.8200    5.8300
    5.8400    5.8500    5.8600    5.8700    5.8800    5.8900    5.9000    5.9100
    5.9200    5.9300    5.9400    5.9500    5.9600    5.9700    5.9800    5.9900
    6.0000    6.0100
   </PP_R>
   <PP_RAB type="real"  size=" 602" columns="8">
    0.0100    0.0100    0.0100    0.0100    0.0100    0.0100    0.0100    0.0100
    0.0100    0.0100    0.0100    0.0100    0.0100    0.0100    0.0100    0.0100
    0.0100    0.0100    0.0100    0.0100    0.0100    0.0100    0.0100    0.0100
    0.0100    0.0100    0.0100    0.0100    0.0100    0.0100    0.0100    0.0100
    0.0100    0.0100    0.0100    0.0100    0.0100    0.0100    0.0100    0.0100
    0.0100    0.0100    0.0100    0.0100    0.0100    0.0100    0.0100    0.0100
    0.0100    0.0100    0.0100    0.0100    0.0100    0.0100    0.0100    0.0100
    0.0100    0.0100    0.0100    0.0100    0.0100    0.0100    0.0100    0.0100
    0.0100    0.0100    0.0100    0.0100    0.0100    0.0100    0.0100    0.0100
    0.0100    0.0100    0.0100    0.0100    0.0100    0.0100    0.0100    0.0100
    0.0100    0.0100    0.0100    0.0100    0.0100    0.0100    0.0100    0.0100
    0.0100    0.0100    0.0100    0.0100    0.0100    0.0100    0.0100    0.0100
    0.0100    0.0100    0.0100    0.0100    0.0100    0.0100    0.0100    0.0100
    0.0100    0.0100    0.0100    0.0100    0.0100    0.0100    0.0100    0.0100
    0.0100    0.0100    0.0100    0.0100    0.0100    0.0100    0.0100    0.0100
    0.0100    0.0100    0.0100    0.0100    0.0100    0.0100    0.0100    0.0100
    0.0100    0.0100    0.0100    0.0100    0.0100    0.0100    0.0100    0.0100
    0.0100    0.0100    0.0100    0.0100    0.0100    0.0100    0.0100    0.0100
    0.0100    0.0100    0.0100    0.0100    0.0100    0.0100    0.0100    0.0100
    0.0100    0.0100    0.0100    0.0100    0.0100    0.0100    0.0100    0.0100
    0.0100    0.0100    0.0100    0.0100    0.0100    0.0100    0.0100    0.0100
    0.0100    0.0100    0.0100    0.0100    0.0100    0.0100    0.0100    0.0100
    0.0100    0.0100    0.0100    0.0100    0.0100    0.0100    0.0100    0.0100
    0.0100    0.0100    0.0100    0.0100    0.0100    0.0100    0.0100    0.0100
    0.0100    0.0100    0.0100    0.0100    0.0100    0.0100    0.0100    0.0100
    0.0100    0.0100    0.0100    0.0100    0.0100    0.0100    0.0100    0.0100
    0.0100    0.0100    0.0100    0.0100    0.0100    0.0100    0.0100    0.0100
    0.0100    0.0100    0.0100    0.0100    0.0100    0.0100    0.0100    0.0100
    0.0100    0.0100    0.0100    0.0100    0.0100    0.0100    0.0100    0.0100
    0.0100    0.0100    0.0100    0.0100    0.0100    0.0100    0.0100    0.0100
    0.0100    0.0100    0.0100    0.0100    0.0100    0.0100    0.0100    0.0100
    0.0100    0.0100    0.0100    0.0100    0.0100    0.0100    0.0100    0.0100
    0.0100    0.0100    0.0100    0.0100    0.0100    0.0100    0.0100    0.0100
    0.0100    0.0100    0.0100    0.0100    0.0100    0.0100    0.0100    0.0100
    0.0100    0.0100    0.0100    0.0100    0.0100    0.0100    0.0100    0.0100
    0.0100    0.0100    0.0100    0.0100    0.0100    0.0100    0.0100    0.0100
    0.0100    0.0100    0.0100    0.0100    0.0100    0.0100    0.0100    0.0100
    0.0100    0.0100    0.0100    0.0100    0.0100    0.0100    0.0100    0.0100
    0.0100    0.0100    0.0100    0.0100    0.0100    0.0100    0.0100    0.0100
    0.0100    0.0100    0.0100    0.0100    0.0100    0.0100    0.0100    0.0100
    0.0100    0.0100    0.0100    0.0100    0.0100    0.0100    0.0100    0.0100
    0.0100    0.0100    0.0100    0.0100    0.0100    0.0100    0.0100    0.0100
    0.0100    0.0100    0.0100    0.0100    0.0100    0.0100    0.0100    0.0100
    0.0100    0.0100    0.0100    0.0100    0.0100    0.0100    0.0100    0.0100
    0.0100    0.0100    0.0100    0.0100    0.0100    0.0100    0.0100    0.0100
    0.0100    0.0100    0.0100    0.0100    0.0100    0.0100    0.0100    0.0100
    0.0100    0.0100    0.0100    0.0100    0.0100    0.0100    0.0100    0.0100
    0.0100    0.0100    0.0100    0.0100    0.0100    0.0100    0.0100    0.0100
    0.0100    0.0100    0.0100    0.0100    0.0100    0.0100    0.0100    0.0100
    0.0100    0.0100    0.0100    0.0100    0.0100    0.0100    0.0100    0.0100
    0.0100    0.0100    0.0100    0.0100    0.0100    0.0100    0.0100    0.0100
    0.0100    0.0100    0.0100    0.0100    0.0100    0.0100    0.0100    0.0100
    0.0100    0.0100    0.0100    0.0100    0.0100    0.0100    0.0100    0.0100
    0.0100    0.0100    0.0100    0.0100    0.0100    0.0100    0.0100    0.0100
    0.0100    0.0100    0.0100    0.0100    0.0100    0.0100    0.0100    0.0100
    0.0100    0.0100    0.0100    0.0100    0.0100    0.0100    0.0100    0.0100
    0.0100    0.0100    0.0100    0.0100    0.0100    0.0100    0.0100    0.0100
    0.0100    0.0100    0.0100    0.0100    0.0100    0.0100    0.0100    0.0100
    0.0100    0.0100    0.0100    0.0100    0.0100    0.0100    0.0100    0.0100
    0.0100    0.0100    0.0100    0.0100    0.0100    0.0100    0.0100    0.0100
    0.0100    0.0100    0.0100    0.0100    0.0100    0.0100    0.0100    0.0100
    0.0100    0.0100    0.0100    0.0100    0.0100    0.0100    0.0100    0.0100
    0.0100    0.0100    0.0100    0.0100    0.0100    0.0100    0.0100    0.0100
    0.0100    0.0100    0.0100    0.0100    0.0100    0.0100    0.0100    0.0100
    0.0100    0.0100    0.0100    0.0100    0.0100    0.0100    0.0100    0.0100
    0.0100    0.0100    0.0100    0.0100    0.0100    0.0100    0.0100    0.0100
    0.0100    0.0100    0.0100    0.0100    0.0100    0.0100    0.0100    0.0100
    0.0100    0.0100    0.0100    0.0100    0.0100    0.0100    0.0100    0.0100
    0.0100    0.0100    0.0100    0.0100    0.0100    0.0100    0.0100    0.0100
    0.0100    0.0100    0.0100    0.0100    0.0100    0.0100    0.0100    0.0100
    0.0100    0.0100    0.0100    0.0100    0.0100    0.0100    0.0100    0.0100
    0.0100    0.0100    0.0100    0.0100    0.0100    0.0100    0.0100    0.0100
    0.0100    0.0100    0.0100    0.0100    0.0100    0.0100    0.0100    0.0100
    0.0100    0.0100    0.0100    0.0100    0.0100    0.0100    0.0100    0.0100
    0.0100    0.0100    0.0100    0.0100    0.0100    0.0100    0.0100    0.0100
    0.0100    0.0100
   </PP_RAB>
 </PP_MESH>
  <PP_LOCAL type="real"  size=" 602" columns="4">
   -4.6013244779E+01   -4.6012469782E+01   -4.6010330649E+01   -4.6006605834E+01
   -4.6001073791E+01   -4.5993456942E+01   -4.5983447764E+01   -4.5970734845E+01
   -4.5955025742E+01   -4.5936064517E+01   -4.5913643054E+01   -4.5887606293E+01
   -4.5857852279E+01   -4.5824328315E+01   -4.5787024612E+01   -4.5745966652E+01
   -4.5701207277E+01   -4.5652819177E+01   -4.5600888218E+01   -4.5545507811E+01
   -4.5486774372E+01   -4.5424783810E+01   -4.5359628934E+01   -4.5291397626E+01
   -4.5220171633E+01   -4.5146025860E+01   -4.5069028003E+01   -4.4989238472E+01
   -4.4906710483E+01   -4.4821490278E+01   -4.4733617416E+01   -4.4643125106E+01
   -4.4550040550E+01   -4.4454385302E+01   -4.4356175574E+01   -4.4255422590E+01
   -4.4152132847E+01   -4.4046308436E+01   -4.3937947284E+01   -4.3827043431E+01
   -4.3713587297E+01   -4.3597565949E+01   -4.3478963395E+01   -4.3357760895E+01
   -4.3233937314E+01   -4.3107469512E+01   -4.2978332787E+01   -4.2846501373E+01
   -4.2711948994E+01   -4.2574649477E+01   -4.2434577434E+01   -4.2291708989E+01
   -4.2146022519E+01   -4.1997499509E+01   -4.1846125338E+01   -4.1691890045E+01
   -4.1534789273E+01   -4.1374824752E+01   -4.1212005318E+01   -4.1046347109E+01
   -4.0877874398E+01   -4.0706619699E+01   -4.0532623971E+01   -4.0355936952E+01
   -4.0176616672E+01   -3.9994729468E+01   -3.9810349683E+01   -3.9623558960E+01
   -3.9434445660E+01   -3.9243104477E+01   -3.9049635423E+01   -3.8854143130E+01
   -3.8656736071E+01   -3.8457525774E+01   -3.8256626139E+01   -3.8054152613E+01
   -3.7850221567E+01   -3.7644949681E+01   -3.7438453402E+01   -3.7230848462E+01
   -3.7022249461E+01   -3.6812769517E+01   -3.6602519972E+01   -3.6391610151E+01
   -3.6180147168E+01   -3.5968235775E+01   -3.5755978240E+01   -3.5543474256E+01
   -3.5330820867E+01   -3.5118112415E+01   -3.4905440491E+01   -3.4692893898E+01
   -3.4480558612E+01   -3.4268517751E+01   -3.4056851530E+01   -3.3845637229E+01
   -3.3634949140E+01   -3.3424858529E+01   -3.3215433697E+01   -3.3006739546E+01
   -3.2798837872E+01   -3.2591787185E+01   -3.2385642644E+01   -3.2180455987E+01
   -3.1976275702E+01   -3.1773146296E+01   -3.1571108756E+01   -3.1370200428E+01
   -3.1170454942E+01   -3.0971902582E+01   -3.0774569001E+01   -3.0578476423E+01
   -3.0383643322E+01   -3.0190084878E+01   -2.9997811822E+01   -2.9806831497E+01
   -2.9617147987E+01   -2.9428762566E+01   -2.9241672339E+01   -2.9055872156E+01
   -2.8871354609E+01   -2.8688109588E+01   -2.8506125033E+01   -2.8325387702E+01
   -2.8145883024E+01   -2.7967595601E+01   -2.7790509966E+01   -2.7614610464E+01
   -2.7439882328E+01   -2.7266311551E+01   -2.7093885075E+01   -2.6922592330E+01
   -2.6752423812E+01   -2.6583372414E+01   -2.6415434114E+01   -2.6248605839E+01
   -2.6082888637E+01   -2.5918285555E+01   -2.5754801193E+01   -2.5592444488E+01
   -2.5431224751E+01   -2.5271154496E+01   -2.5112247812E+01   -2.4954519657E+01
   -2.4797987344E+01   -2.4642668030E+01   -2.4488580171E+01   -2.4335741920E+01
   -2.4184171780E+01   -2.4033886983E+01   -2.3884905279E+01   -2.3737241349E+01
   -2.3590910454E+01   -2.3445924172E+01   -2.3302293424E+01   -2.3160026152E+01
   -2.3019127590E+01   -2.2879601463E+01   -2.2741446543E+01   -2.2604661875E+01
   -2.2469239636E+01   -2.2335173926E+01   -2.2202450901E+01   -2.2071059737E+01
   -2.1940981905E+01   -2.1812201829E+01   -2.1684698243E+01   -2.1558451812E+01
   -2.1433440311E+01   -2.1309642217E+01   -2.1187036164E+01   -2.1065600097E+01
   -2.0945315269E+01   -2.0826160583E+01   -2.0708121182E+01   -2.0591178457E+01
   -2.0475321653E+01   -2.0360536127E+01   -2.0246814569E+01   -2.0134147028E+01
   -2.0022528771E+01   -1.9911954322E+01   -1.9802420633E+01   -1.9693925548E+01
   -1.9586467070E+01   -1.9480044439E+01   -1.9374656393E+01   -1.9270301411E+01
   -1.9166978461E+01   -1.9064684861E+01   -1.8963419036E+01   -1.8863177498E+01
   -1.8763957566E+01   -1.8665755021E+01   -1.8568564712E+01   -1.8472382048E+01
   -1.8377198843E+01   -1.8283009617E+01   -1.8189804210E+01   -1.8097574350E+01
   -1.8006309754E+01   -1.7915998978E+01   -1.7826631618E+01   -1.7738194078E+01
   -1.7650674607E+01   -1.7564059315E+01   -1.7478334514E+01   -1.7393486538E+01
   -1.7309500662E+01   -1.7226362732E+01   -1.7144058130E+01   -1.7062572228E+01
   -1.6981890533E+01   -1.6901998888E+01   -1.6822882518E+01   -1.6744527996E+01
   -1.6666921457E+01   -1.6590049060E+01   -1.6513898653E+01   -1.6438456657E+01
   -1.6363711399E+01   -1.6289651412E+01   -1.6216263991E+01   -1.6143539749E+01
   -1.6071467518E+01   -1.6000037089E+01   -1.5929240140E+01   -1.5859066596E+01
   -1.5789508574E+01   -1.5720558262E+01   -1.5652206983E+01   -1.5584447693E+01
   -1.5517272710E+01   -1.5450674371E+01   -1.5384645506E+01   -1.5319178490E+01
   -1.5254266143E+01   -1.5189901763E+01   -1.5126078124E+01   -1.5062788605E+01
   -1.5000026686E+01   -1.4937785388E+01   -1.4876058570E+01   -1.4814839964E+01
   -1.4754122881E+01   -1.4693901588E+01   -1.4634170049E+01   -1.4574921891E+01
   -1.4516151700E+01   -1.4457853682E+01   -1.4400021796E+01   -1.4342650877E+01
   -1.4285735394E+01   -1.4229269594E+01   -1.4173248555E+01   -1.4117667014E+01
   -1.4062519456E+01   -1.4007801204E+01   -1.3953507261E+01   -1.3899632311E+01
   -1.3846171918E+01   -1.3793121321E+01   -1.3740475458E+01   -1.3688230038E+01
   -1.3636380553E+01   -1.3584922206E+01   -1.3533850802E+01   -1.3483162088E+01
   -1.3432851537E+01   -1.3382915011E+01   -1.3333348516E+01   -1.3284147793E+01
   -1.3235308731E+01   -1.3186827588E+01   -1.3138700380E+01   -1.3090922993E+01
   -1.3043491933E+01   -1.2996403450E+01   -1.2949653535E+01   -1.2903238804E+01
   -1.2857155723E+01   -1.2811400551E+01   -1.2765969826E+01   -1.2720860279E+01
   -1.2676068446E+01   -1.2631590764E+01   -1.2587424217E+01   -1.2543565554E+01
   -1.2500011308E+01   -1.2456758494E+01   -1.2413804080E+01   -1.2371144873E+01
   -1.2328777727E+01   -1.2286699873E+01   -1.2244908358E+01   -1.2203400004E+01
   -1.2162172146E+01   -1.2121222014E+01   -1.2080546708E+01   -1.2040143349E+01
   -1.2000009436E+01   -1.1960142283E+01   -1.1920539014E+01   -1.1881197153E+01
   -1.1842114211E+01   -1.1803287595E+01   -1.1764714573E+01   -1.1726392920E+01
   -1.1688320196E+01   -1.1650493841E+01   -1.1612911449E+01   -1.1575570825E+01
   -1.1538469644E+01   -1.1501605395E+01   -1.1464975954E+01   -1.1428579162E+01
   -1.1392412797E+01   -1.1356474418E+01   -1.1320762135E+01   -1.1285273832E+01
   -1.1250007341E+01   -1.1214960440E+01   -1.1180131292E+01   -1.1145517879E+01
   -1.1111118095E+01   -1.1076929907E+01   -1.1042951532E+01   -1.1009181046E+01
   -1.0975616416E+01   -1.0942255760E+01   -1.0909097358E+01   -1.0876139376E+01
   -1.0843379858E+01   -1.0810817045E+01   -1.0778449286E+01   -1.0746274831E+01
   -1.0714291808E+01   -1.0682498553E+01   -1.0650893487E+01   -1.0619474945E+01
   -1.0588241141E+01   -1.0557190479E+01   -1.0526321460E+01   -1.0495632497E+01
   -1.0465121900E+01   -1.0434788112E+01   -1.0404629721E+01   -1.0374645214E+01
   -1.0344833001E+01   -1.0315191542E+01   -1.0285719517E+01   -1.0256415482E+01
   -1.0227277954E+01   -1.0198305387E+01   -1.0169496558E+01   -1.0140850089E+01
   -1.0112364602E+01   -1.0084038543E+01   -1.0055870770E+01   -1.0027859975E+01
   -1.0000004846E+01   -9.9723039397E+00   -9.9447560600E+00   -9.9173600106E+00
   -9.8901145399E+00   -9.8630183263E+00   -9.8360700984E+00   -9.8092687739E+00
   -9.7826131596E+00   -9.7561020607E+00   -9.7297341162E+00   -9.7035083568E+00
   -9.6774236451E+00   -9.6514788432E+00   -9.6256727135E+00   -9.6000041751E+00
   -9.5744722162E+00   -9.5490757522E+00   -9.5238136815E+00   -9.4986847927E+00
   -9.4736881992E+00   -9.4488228670E+00   -9.4240877620E+00   -9.3994817571E+00
   -9.3750038651E+00   -9.3506531723E+00   -9.3264286926E+00   -9.3023294403E+00
   -9.2783542769E+00   -9.2545024085E+00   -9.2307728994E+00   -9.2071648094E+00
   -9.1836771464E+00   -9.1603089317E+00   -9.1370593736E+00   -9.1139275759E+00
   -9.0909126423E+00   -9.0680135803E+00   -9.0452295583E+00   -9.0225597791E+00
   -9.0000033882E+00   -8.9775595312E+00   -8.9552272250E+00   -8.9330057586E+00
   -8.9108943365E+00   -8.8888921440E+00   -8.8669983577E+00   -8.8452120395E+00
   -8.8235325464E+00   -8.8019591020E+00   -8.7804909293E+00   -8.7591272246E+00
   -8.7378671304E+00   -8.7167100203E+00   -8.6956551538E+00   -8.6747017904E+00
   -8.6538491531E+00   -8.6330964439E+00   -8.6124430591E+00   -8.5918882926E+00
   -8.5714314385E+00   -8.5510717536E+00   -8.5308084789E+00   -8.5106410396E+00
   -8.4905687628E+00   -8.4705909753E+00   -8.4507069742E+00   -8.4309160202E+00
   -8.4112175739E+00   -8.3916109936E+00   -8.3720956375E+00   -8.3526708491E+00
   -8.3333358910E+00   -8.3140902646E+00   -8.2949333579E+00   -8.2758645593E+00
   -8.2568832568E+00   -8.2379887212E+00   -8.2191804769E+00   -8.2004579479E+00
   -8.1818205510E+00   -8.1632677028E+00   -8.1447987325E+00   -8.1264131266E+00
   -8.1081103653E+00   -8.0898898924E+00   -8.0717511518E+00   -8.0536935371E+00
   -8.0357164815E+00   -8.0178195259E+00   -8.0000021400E+00   -7.9822637936E+00
   -7.9646039499E+00   -7.9470219766E+00   -7.9295174775E+00   -7.9120899472E+00
   -7.8947388801E+00   -7.8774637707E+00   -7.8602640406E+00   -7.8431392286E+00
   -7.8260888956E+00   -7.8091125596E+00   -7.7922097386E+00   -7.7753799345E+00
   -7.7586225889E+00   -7.7419373375E+00   -7.7253237210E+00   -7.7087812796E+00
   -7.6923095540E+00   -7.6759080198E+00   -7.6595762487E+00   -7.6433138483E+00
   -7.6271203805E+00   -7.6109954072E+00   -7.5949384903E+00   -7.5789490893E+00
   -7.5630268842E+00   -7.5471714608E+00   -7.5313824014E+00   -7.5156592885E+00
   -7.5000016746E+00   -7.4844091014E+00   -7.4688812459E+00   -7.4534177099E+00
   -7.4380180951E+00   -7.4226820034E+00   -7.4074089827E+00   -7.3921986486E+00
   -7.3770506706E+00   -7.3619646691E+00   -7.3469402644E+00   -7.3319770767E+00
   -7.3170746569E+00   -7.3022326761E+00   -7.2874508029E+00   -7.2727286754E+00
   -7.2580659316E+00   -7.2434622094E+00   -7.2289170692E+00   -7.2144302200E+00
   -7.2000013366E+00   -7.1856300738E+00   -7.1713160864E+00   -7.1570590294E+00
   -7.1428584785E+00   -7.1287141647E+00   -7.1146257751E+00   -7.1005929804E+00
   -7.0866154518E+00   -7.0726928602E+00   -7.0588248026E+00   -7.0450110165E+00
   -7.0312512074E+00   -7.0175450617E+00   -7.0038922655E+00   -6.9902925053E+00
   -6.9767454048E+00   -6.9632506935E+00   -6.9498081014E+00   -6.9364173292E+00
   -6.9230780778E+00   -6.9097900482E+00   -6.8965528964E+00   -6.8833663304E+00
   -6.8702301094E+00   -6.8571439484E+00   -6.8441075621E+00   -6.8311206654E+00
   -6.8181829518E+00   -6.8052940951E+00   -6.7924538887E+00   -6.7796620607E+00
   -6.7669183394E+00   -6.7542224527E+00   -6.7415741289E+00   -6.7289730195E+00
   -6.7164189327E+00   -6.7039116171E+00   -6.6914508133E+00   -6.6790362623E+00
   -6.6666677048E+00   -6.6543448398E+00   -6.6420674143E+00   -6.6298352225E+00
   -6.6176480173E+00   -6.6055055515E+00   -6.5934075782E+00   -6.5813538487E+00
   -6.5693440388E+00   -6.5573779912E+00   -6.5454554704E+00   -6.5335762408E+00
   -6.5217400667E+00   -6.5099467125E+00   -6.4981959067E+00   -6.4864874109E+00
   -6.4748210438E+00   -6.4631965809E+00   -6.4516137974E+00   -6.4400724687E+00
   -6.4285723703E+00   -6.4171132152E+00   -6.4056948344E+00   -6.3943170286E+00
   -6.3829795836E+00   -6.3716822853E+00   -6.3604249194E+00   -6.3492072651E+00
   -6.3380290476E+00   -6.3268901305E+00   -6.3157903099E+00   -6.3047293814E+00
   -6.2937071409E+00   -6.2827233842E+00   -6.2717778860E+00   -6.2608704132E+00
   -6.2500008235E+00   -6.2391689224E+00   -6.2283745151E+00   -6.2176174070E+00
   -6.2068974034E+00   -6.1962142806E+00   -6.1855678333E+00   -6.1749579188E+00
   -6.1643843517E+00   -6.1538469463E+00   -6.1433455170E+00   -6.1328798782E+00
   -6.1224498137E+00   -6.1120551322E+00   -6.1016956965E+00   -6.0913713297E+00
   -6.0810818548E+00   -6.0708270949E+00   -6.0606068730E+00   -6.0504209858E+00
   -6.0402692433E+00   -6.0301515191E+00   -6.0200676445E+00   -6.0100174508E+00
   -6.0000007692E+00   -5.9900174311E+00
  </PP_LOCAL>
 <PP_NONLOCAL>
   <PP_BETA.1
       type="real"
       size=" 602"
       columns="4"
       index="1"
       angular_momentum="0"
       cutoff_radius_index=" 230"
       cutoff_radius="    2.2900000000E+00" >
    0.0000000000E+00   -4.2185586607E-02   -8.4325280704E-02   -1.2637326156E-01
   -1.6828385185E-01   -2.1001158904E-01   -2.5151129637E-01   -2.9273815320E-01
   -3.3364776486E-01   -3.7419623151E-01   -4.1434021621E-01   -4.5403701183E-01
   -4.9324460681E-01   -5.3192174964E-01   -5.7002801183E-01   -6.0752384942E-01
   -6.4437066276E-01   -6.8053085454E-01   -7.1596788592E-01   -7.5064633076E-01
   -7.8453192765E-01   -8.1759162983E-01   -8.4979365280E-01   -8.8110751969E-01
   -9.1150410404E-01   -9.4095567012E-01   -9.6943591086E-01   -9.9691998284E-01
   -1.0233845387E+00   -1.0488077570E+00   -1.0731693688E+00   -1.0964506820E+00
   -1.1186346024E+00   -1.1397056516E+00   -1.1596499830E+00   -1.1784553934E+00
   -1.1961113331E+00   -1.2126089115E+00   -1.2279409014E+00   -1.2421017390E+00
   -1.2550875213E+00   -1.2668960012E+00   -1.2775265786E+00   -1.2869802898E+00
   -1.2952597928E+00   -1.3023693510E+00   -1.3083148132E+00   -1.3131035917E+00
   -1.3167446367E+00   -1.3192484097E+00   -1.3206268521E+00   -1.3208933533E+00
   -1.3200627174E+00   -1.3181511226E+00   -1.3151760842E+00   -1.3111564146E+00
   -1.3061121731E+00   -1.3000646321E+00   -1.2930362143E+00   -1.2850504610E+00
   -1.2761319653E+00   -1.2663063308E+00   -1.2556001184E+00   -1.2440407776E+00
   -1.2316566113E+00   -1.2184767063E+00   -1.2045308693E+00   -1.1898495825E+00
   -1.1744639482E+00   -1.1584056006E+00   -1.1417066701E+00   -1.1243997179E+00
   -1.1065176746E+00   -1.0880937873E+00   -1.0691615293E+00   -1.0497545699E+00
   -1.0299067041E+00   -1.0096517927E+00   -9.8902370327E-01   -9.6805625072E-01
   -9.4678313984E-01   -9.2523790807E-01   -9.0345386944E-01   -8.8146405967E-01
   -8.5930118238E-01   -8.3699755670E-01   -8.1458506618E-01   -7.9209510929E-01
   -7.6955855134E-01   -7.4700567825E-01   -7.2446615188E-01   -7.0196896734E-01
   -6.7954241212E-01   -6.5721402725E-01   -6.3501057057E-01   -6.1295798206E-01