<UPF version="2.0.1">
  <PP_INFO>

 O_ONCV_PBE_FR-1.0.upf

 This pseudopotential file has been produced using the code
 ONCVPSP  (Optimized Norm-Conservinng Vanderbilt PSeudopotential)
 fully-relativistic version 2.1.1, 03/26/2014 by D. R. Hamann
 The code is available through a link at URL www.mat-simresearch.com.
 Documentation with the package provides a full description of the
 input data below.

 While it is not required under the terms of the GNU GPL, it is
 suggested that you cite D. R. Hamann, Phys. Rev. B 88, 085117 (2013)
 in any publication using these pseudopotentials.

 -----

 This pseudopotential was produced with the SG15 1.0 and/or 1.1
 parameter sets, the Schlipf-Gygi norm-conserving pseudopotential
 library. For details of the construction and testing of the
 pseudopotential please refer to:

 M. Schlipf, F. Gygi, Comp. Phys. Comm. 196, 36 (2015)
 http://dx.doi.org/10.1016/j.cpc.2015.05.011

 The above authors kindly ask that you include this reference in all
 publications associated to this pseudopotential.

 Please note this fully-relativistic version does not employ the
 above self-consistent procedure at the fully-relativistic level.

 -----

 This pseudopotential was produced by Peter Scherpelz for the purpose
 of performing GW calculations with spin-orbit-coupling. Please see
 the publication:

 P. Scherpelz, M. Govoni, I. Hamada, G. Galli; J. Chem. Theory Comput. (2016)
 http://dx.doi.org/10.1021/acs.jctc.6b00114

 If you use these pseudopotentials in your work, we also kindly ask
 that you cite the above publication.

 -----

 This work is licensed under the Creative Commons Attribution-ShareAlike 
 4.0 International License. To view a copy of this license, visit 
 http://creativecommons.org/licenses/by-sa/4.0/ or send a letter to 
 Creative Commons, PO Box 1866, Mountain View, CA 94042, USA.

 The SG15 library is Copyright 2015 The Regents of the University of
 California.  Further modifications of these files are Copyright 2016
 Peter Scherpelz.

    <PP_INPUTFILE>
# ATOM AND REFERENCE CONFIGURATION
# atsym  z    nc    nv    iexc   psfile
  O  8.00     1     2     4      upf
#
#   n    l    f        energy (Ha)
    1    0    2.00
    2    0    2.00
    2    1    4.00
#
# PSEUDOPOTENTIAL AND OPTIMIZATION
# lmax
    1
#
#   l,   rc,     ep,   ncon, nbas, qcut
    0    1.29   -0.88    5    8    8.99
    1    1.47   -0.33    5    8    9.15
#
# LOCAL POTENTIAL
# lloc, lpopt,  rc(5),   dvloc0
    4    5      0.90       0.00
#
# VANDERBILT-KLEINMAN-BYLANDER PROJECTORs
# l, nproj, debl
    0    2    1.5185
    1    2    1.5359
#
# MODEL CORE CHARGE
# icmod, fcfact
    0    0.00
#
# LOG DERIVATIVE ANALYSIS
# epsh1, epsh2, depsh
   -5.00    3.00    0.02
#
# OUTPUT GRID
# rlmax, drl
    6.00    0.01
#
# TEST CONFIGURATIONS
# ncnf
    0
# nvcnf
#   n    l    f
    </PP_INPUTFILE>
  </PP_INFO>
  <!--                               -->
  <!-- END OF HUMAN READABLE SECTION -->
  <!--                               -->
    <PP_HEADER
       generated="Generated using ONCVPSP code by D. R. Hamann"
       author="anonymous"
       date="150703"
       comment=""
       element="O "
       pseudo_type="NC"
       relativistic="full"
       is_ultrasoft="F"
       is_paw="F"
       is_coulomb="F"
       has_so="T"
       has_wfc="F"
       has_gipaw="F"
       core_correction="F"
       functional="PBE"
       z_valence="    6.00"
       total_psenergy="  -1.57190794023E+01"
       rho_cutoff="   6.01000000000E+00"
       l_max="1"
       l_local="-1"
       mesh_size="   602"
       number_of_wfc="0"
       number_of_proj="6"/>
 <PP_MESH>
   <PP_R type="real"  size=" 602" columns="8">
    0.0000    0.0100    0.0200    0.0300    0.0400    0.0500    0.0600    0.0700
    0.0800    0.0900    0.1000    0.1100    0.1200    0.1300    0.1400    0.1500
    0.1600    0.1700    0.1800    0.1900    0.2000    0.2100    0.2200    0.2300
    0.2400    0.2500    0.2600    0.2700    0.2800    0.2900    0.3000    0.3100
    0.3200    0.3300    0.3400    0.3500    0.3600    0.3700    0.3800    0.3900
    0.4000    0.4100    0.4200    0.4300    0.4400    0.4500    0.4600    0.4700
    0.4800    0.4900    0.5000    0.5100    0.5200    0.5300    0.5400    0.5500
    0.5600    0.5700    0.5800    0.5900    0.6000    0.6100    0.6200    0.6300
    0.6400    0.6500    0.6600    0.6700    0.6800    0.6900    0.7000    0.7100
    0.7200    0.7300    0.7400    0.7500    0.7600    0.7700    0.7800    0.7900
    0.8000    0.8100    0.8200    0.8300    0.8400    0.8500    0.8600    0.8700
    0.8800    0.8900    0.9000    0.9100    0.9200    0.9300    0.9400    0.9500
    0.9600    0.9700    0.9800    0.9900    1.0000    1.0100    1.0200    1.0300
    1.0400    1.0500    1.0600    1.0700    1.0800    1.0900    1.1000    1.1100
    1.1200    1.1300    1.1400    1.1500    1.1600    1.1700    1.1800    1.1900
    1.2000    1.2100    1.2200    1.2300    1.2400    1.2500    1.2600    1.2700
    1.2800    1.2900    1.3000    1.3100    1.3200    1.3300    1.3400    1.3500
    1.3600    1.3700    1.3800    1.3900    1.4000    1.4100    1.4200    1.4300
    1.4400    1.4500    1.4600    1.4700    1.4800    1.4900    1.5000    1.5100
    1.5200    1.5300    1.5400    1.5500    1.5600    1.5700    1.5800    1.5900
    1.6000    1.6100    1.6200    1.6300    1.6400    1.6500    1.6600    1.6700
    1.6800    1.6900    1.7000    1.7100    1.7200    1.7300    1.7400    1.7500
    1.7600    1.7700    1.7800    1.7900    1.8000    1.8100    1.8200    1.8300
    1.8400    1.8500    1.8600    1.8700    1.8800    1.8900    1.9000    1.9100
    1.9200    1.9300    1.9400    1.9500    1.9600    1.9700    1.9800    1.9900
    2.0000    2.0100    2.0200    2.0300    2.0400    2.0500    2.0600    2.0700
    2.0800    2.0900    2.1000    2.1100    2.1200    2.1300    2.1400    2.1500
    2.1600    2.1700    2.1800    2.1900    2.2000    2.2100    2.2200    2.2300
    2.2400    2.2500    2.2600    2.2700    2.2800    2.2900    2.3000    2.3100
    2.3200    2.3300    2.3400    2.3500    2.3600    2.3700    2.3800    2.3900
    2.4000    2.4100    2.4200    2.4300    2.4400    2.4500    2.4600    2.4700
    2.4800    2.4900    2.5000    2.5100    2.5200    2.5300    2.5400    2.5500
    2.5600    2.5700    2.5800    2.5900    2.6000    2.6100    2.6200    2.6300
    2.6400    2.6500    2.6600    2.6700    2.6800    2.6900    2.7000    2.7100
    2.7200    2.7300    2.7400    2.7500    2.7600    2.7700    2.7800    2.7900
    2.8000    2.8100    2.8200    2.8300    2.8400    2.8500    2.8600    2.8700
    2.8800    2.8900    2.9000    2.9100    2.9200    2.9300    2.9400    2.9500
    2.9600    2.9700    2.9800    2.9900    3.0000    3.0100    3.0200    3.0300
    3.0400    3.0500    3.0600    3.0700    3.0800    3.0900    3.1000    3.1100
    3.1200    3.1300    3.1400    3.1500    3.1600    3.1700    3.1800    3.1900
    3.2000    3.2100    3.2200    3.2300    3.2400    3.2500    3.2600    3.2700
    3.2800    3.2900    3.3000    3.3100    3.3200    3.3300    3.3400    3.3500
    3.3600    3.3700    3.3800    3.3900    3.4000    3.4100    3.4200    3.4300
    3.4400    3.4500    3.4600    3.4700    3.4800    3.4900    3.5000    3.5100
    3.5200    3.5300    3.5400    3.5500    3.5600    3.5700    3.5800    3.5900
    3.6000    3.6100    3.6200    3.6300    3.6400    3.6500    3.6600    3.6700
    3.6800    3.6900    3.7000    3.7100    3.7200    3.7300    3.7400    3.7500
    3.7600    3.7700    3.7800    3.7900    3.8000    3.8100    3.8200    3.8300
    3.8400    3.8500    3.8600    3.8700    3.8800    3.8900    3.9000    3.9100
    3.9200    3.9300    3.9400    3.9500    3.9600    3.9700    3.9800    3.9900
    4.0000    4.0100    4.0200    4.0300    4.0400    4.0500    4.0600    4.0700
    4.0800    4.0900    4.1000    4.1100    4.1200    4.1300    4.1400    4.1500
    4.1600    4.1700    4.1800    4.1900    4.2000    4.2100    4.2200    4.2300
    4.2400    4.2500    4.2600    4.2700    4.2800    4.2900    4.3000    4.3100
    4.3200    4.3300    4.3400    4.3500    4.3600    4.3700    4.3800    4.3900
    4.4000    4.4100    4.4200    4.4300    4.4400    4.4500    4.4600    4.4700
    4.4800    4.4900    4.5000    4.5100    4.5200    4.5300    4.5400    4.5500
    4.5600    4.5700    4.5800    4.5900    4.6000    4.6100    4.6200    4.6300
    4.6400    4.6500    4.6600    4.6700    4.6800    4.6900    4.7000    4.7100
    4.7200    4.7300    4.7400    4.7500    4.7600    4.7700    4.7800    4.7900
    4.8000    4.8100    4.8200    4.8300    4.8400    4.8500    4.8600    4.8700
    4.8800    4.8900    4.9000    4.9100    4.9200    4.9300    4.9400    4.9500
    4.9600    4.9700    4.9800    4.9900    5.0000    5.0100    5.0200    5.0300
    5.0400    5.0500    5.0600    5.0700    5.0800    5.0900    5.1000    5.1100
    5.1200    5.1300    5.1400    5.1500    5.1600    5.1700    5.1800    5.1900
    5.2000    5.2100    5.2200    5.2300    5.2400    5.2500    5.2600    5.2700
    5.2800    5.2900    5.3000    5.3100    5.3200    5.3300    5.3400    5.3500
    5.3600    5.3700    5.3800    5.3900    5.4000    5.4100    5.4200    5.4300
    5.4400    5.4500    5.4600    5.4700    5.4800    5.4900    5.5000    5.5100
    5.5200    5.5300    5.5400    5.5500    5.5600    5.5700    5.5800    5.5900
    5.6000    5.6100    5.6200    5.6300    5.6400    5.6500    5.6600    5.6700
    5.6800    5.6900    5.7000    5.7100    5.7200    5.7300    5.7400    5.7500
    5.7600    5.7700    5.7800    5.7900    5.8000    5.8100    5.8200    5.8300
    5.8400    5.8500    5.8600    5.8700    5.8800    5.8900    5.9000    5.9100
    5.9200    5.9300    5.9400    5.9500    5.9600    5.9700    5.9800    5.9900
    6.0000    6.0100
   </PP_R>
   <PP_RAB type="real"  size=" 602" columns="8">
    0.0100    0.0100    0.0100    0.0100    0.0100    0.0100    0.0100    0.0100
    0.0100    0.0100    0.0100    0.0100    0.0100    0.0100    0.0100    0.0100
    0.0100    0.0100    0.0100    0.0100    0.0100    0.0100    0.0100    0.0100
    0.0100    0.0100    0.0100    0.0100    0.0100    0.0100    0.0100    0.0100
    0.0100    0.0100    0.0100    0.0100    0.0100    0.0100    0.0100    0.0100
    0.0100    0.0100    0.0100    0.0100    0.0100    0.0100    0.0100    0.0100
    0.0100    0.0100    0.0100    0.0100    0.0100    0.0100    0.0100    0.0100
    0.0100    0.0100    0.0100    0.0100    0.0100    0.0100    0.0100    0.0100
    0.0100    0.0100    0.0100    0.0100    0.0100    0.0100    0.0100    0.0100
    0.0100    0.0100    0.0100    0.0100    0.0100    0.0100    0.0100    0.0100
    0.0100    0.0100    0.0100    0.0100    0.0100    0.0100    0.0100    0.0100
    0.0100    0.0100    0.0100    0.0100    0.0100    0.0100    0.0100    0.0100
    0.0100    0.0100    0.0100    0.0100    0.0100    0.0100    0.0100    0.0100
    0.0100    0.0100    0.0100    0.0100    0.0100    0.0100    0.0100    0.0100
    0.0100    0.0100    0.0100    0.0100    0.0100    0.0100    0.0100    0.0100
    0.0100    0.0100    0.0100    0.0100    0.0100    0.0100    0.0100    0.0100
    0.0100    0.0100    0.0100    0.0100    0.0100    0.0100    0.0100    0.0100
    0.0100    0.0100    0.0100    0.0100    0.0100    0.0100    0.0100    0.0100
    0.0100    0.0100    0.0100    0.0100    0.0100    0.0100    0.0100    0.0100
    0.0100    0.0100    0.0100    0.0100    0.0100    0.0100    0.0100    0.0100
    0.0100    0.0100    0.0100    0.0100    0.0100    0.0100    0.0100    0.0100
    0.0100    0.0100    0.0100    0.0100    0.0100    0.0100    0.0100    0.0100
    0.0100    0.0100    0.0100    0.0100    0.0100    0.0100    0.0100    0.0100
    0.0100    0.0100    0.0100    0.0100    0.0100    0.0100    0.0100    0.0100
    0.0100    0.0100    0.0100    0.0100    0.0100    0.0100    0.0100    0.0100
    0.0100    0.0100    0.0100    0.0100    0.0100    0.0100    0.0100    0.0100
    0.0100    0.0100    0.0100    0.0100    0.0100    0.0100    0.0100    0.0100
    0.0100    0.0100    0.0100    0.0100    0.0100    0.0100    0.0100    0.0100
    0.0100    0.0100    0.0100    0.0100    0.0100    0.0100    0.0100    0.0100
    0.0100    0.0100    0.0100    0.0100    0.0100    0.0100    0.0100    0.0100
    0.0100    0.0100    0.0100    0.0100    0.0100    0.0100    0.0100    0.0100
    0.0100    0.0100    0.0100    0.0100    0.0100    0.0100    0.0100    0.0100
    0.0100    0.0100    0.0100    0.0100    0.0100    0.0100    0.0100    0.0100
    0.0100    0.0100    0.0100    0.0100    0.0100    0.0100    0.0100    0.0100
    0.0100    0.0100    0.0100    0.0100    0.0100    0.0100    0.0100    0.0100
    0.0100    0.0100    0.0100    0.0100    0.0100    0.0100    0.0100    0.0100
    0.0100    0.0100    0.0100    0.0100    0.0100    0.0100    0.0100    0.0100
    0.0100    0.0100    0.0100    0.0100    0.0100    0.0100    0.0100    0.0100
    0.0100    0.0100    0.0100    0.0100    0.0100    0.0100    0.0100    0.0100
    0.0100    0.0100    0.0100    0.0100    0.0100    0.0100    0.0100    0.0100
    0.0100    0.0100    0.0100    0.0100    0.0100    0.0100    0.0100    0.0100
    0.0100    0.0100    0.0100    0.0100    0.0100    0.0100    0.0100    0.0100
    0.0100    0.0100    0.0100    0.0100    0.0100    0.0100    0.0100    0.0100
    0.0100    0.0100    0.0100    0.0100    0.0100    0.0100    0.0100    0.0100
    0.0100    0.0100    0.0100    0.0100    0.0100    0.0100    0.0100    0.0100
    0.0100    0.0100    0.0100    0.0100    0.0100    0.0100    0.0100    0.0100
    0.0100    0.0100    0.0100    0.0100    0.0100    0.0100    0.0100    0.0100
    0.0100    0.0100    0.0100    0.0100    0.0100    0.0100    0.0100    0.0100
    0.0100    0.0100    0.0100    0.0100    0.0100    0.0100    0.0100    0.0100
    0.0100    0.0100    0.0100    0.0100    0.0100    0.0100    0.0100    0.0100
    0.0100    0.0100    0.0100    0.0100    0.0100    0.0100    0.0100    0.0100
    0.0100    0.0100    0.0100    0.0100    0.0100    0.0100    0.0100    0.0100
    0.0100    0.0100    0.0100    0.0100    0.0100    0.0100    0.0100    0.0100
    0.0100    0.0100    0.0100    0.0100    0.0100    0.0100    0.0100    0.0100
    0.0100    0.0100    0.0100    0.0100    0.0100    0.0100    0.0100    0.0100
    0.0100    0.0100    0.0100    0.0100    0.0100    0.0100    0.0100    0.0100
    0.0100    0.0100    0.0100    0.0100    0.0100    0.0100    0.0100    0.0100
    0.0100    0.0100    0.0100    0.0100    0.0100    0.0100    0.0100    0.0100
    0.0100    0.0100    0.0100    0.0100    0.0100    0.0100    0.0100    0.0100
    0.0100    0.0100    0.0100    0.0100    0.0100    0.0100    0.0100    0.0100
    0.0100    0.0100    0.0100    0.0100    0.0100    0.0100    0.0100    0.0100
    0.0100    0.0100    0.0100    0.0100    0.0100    0.0100    0.0100    0.0100
    0.0100    0.0100    0.0100    0.0100    0.0100    0.0100    0.0100    0.0100
    0.0100    0.0100    0.0100    0.0100    0.0100    0.0100    0.0100    0.0100
    0.0100    0.0100    0.0100    0.0100    0.0100    0.0100    0.0100    0.0100
    0.0100    0.0100    0.0100    0.0100    0.0100    0.0100    0.0100    0.0100
    0.0100    0.0100    0.0100    0.0100    0.0100    0.0100    0.0100    0.0100
    0.0100    0.0100    0.0100    0.0100    0.0100    0.0100    0.0100    0.0100
    0.0100    0.0100    0.0100    0.0100    0.0100    0.0100    0.0100    0.0100
    0.0100    0.0100    0.0100    0.0100    0.0100    0.0100    0.0100    0.0100
    0.0100    0.0100    0.0100    0.0100    0.0100    0.0100    0.0100    0.0100
    0.0100    0.0100    0.0100    0.0100    0.0100    0.0100    0.0100    0.0100
    0.0100    0.0100    0.0100    0.0100    0.0100    0.0100    0.0100    0.0100
    0.0100    0.0100    0.0100    0.0100    0.0100    0.0100    0.0100    0.0100
    0.0100    0.0100    0.0100    0.0100    0.0100    0.0100    0.0100    0.0100
    0.0100    0.0100
   </PP_RAB>
 </PP_MESH>
  <PP_LOCAL type="real"  size=" 602" columns="4">
   -2.7688926888E+01   -3.0728909923E+01   -3.2260440423E+01   -3.2687352048E+01
   -3.2413478456E+01   -3.1930438507E+01   -3.1467471155E+01   -3.1087619448E+01
   -3.0786458019E+01   -3.0542300289E+01   -3.0334276107E+01   -3.0146517621E+01
   -2.9967916653E+01   -2.9790998726E+01   -2.9610921153E+01   -2.9424752094E+01
   -2.9230969953E+01   -2.9029099335E+01   -2.8819425304E+01   -2.8602754445E+01
   -2.8380211011E+01   -2.8153067303E+01   -2.7922610557E+01   -2.7690047756E+01
   -2.7456446554E+01   -2.7222707140E+01   -2.6989557457E+01   -2.6757564085E+01
   -2.6527151041E+01   -2.6298620700E+01   -2.6072172764E+01   -2.5847918840E+01
   -2.5625891684E+01   -2.5406049379E+01   -2.5188274845E+01   -2.4972373655E+01
   -2.4758070268E+01   -2.4545007183E+01   -2.4332747195E+01   -2.4120782259E+01
   -2.3908549579E+01   -2.3695455042E+01   -2.3480903136E+01   -2.3264330951E+01
   -2.3045242846E+01   -2.2823241906E+01   -2.2598054481E+01   -2.2369545004E+01
   -2.2137719695E+01   -2.1902719022E+01   -2.1664803252E+01   -2.1424327945E+01
   -2.1181718416E+01   -2.0937444369E+01   -2.0691994629E+01   -2.0445857440E+01
   -2.0199503918E+01   -1.9953377949E+01   -1.9707887867E+01   -1.9463404946E+01
   -1.9220261487E+01   -1.8978753234E+01   -1.8739142378E+01   -1.8501659813E+01
   -1.8266510280E+01   -1.8033875168E+01   -1.7803915528E+01   -1.7576775588E+01
   -1.7352585036E+01   -1.7131460472E+01   -1.6913507414E+01   -1.6698821389E+01
   -1.6487488719E+01   -1.6279587175E+01   -1.6075185966E+01   -1.5874346196E+01
   -1.5677120760E+01   -1.5483554199E+01   -1.5293682478E+01   -1.5107532695E+01
   -1.4925122732E+01   -1.4746460883E+01   -1.4571545445E+01   -1.4400364297E+01
   -1.4232894468E+01   -1.4069101696E+01   -1.3908939985E+01   -1.3752351157E+01
   -1.3599264410E+01   -1.3449595866E+01   -1.3303248060E+01   -1.3160109442E+01
   -1.3020061084E+01   -1.2882986013E+01   -1.2748772847E+01   -1.2617315492E+01
   -1.2488512926E+01   -1.2362269022E+01   -1.2238492366E+01   -1.2117096493E+01
   -1.1997999343E+01   -1.1881123280E+01   -1.1766394969E+01   -1.1653745245E+01
   -1.1543108723E+01   -1.1434424512E+01   -1.1327635264E+01   -1.1222687258E+01
   -1.1119530217E+01   -1.1018116973E+01   -1.0918404110E+01   -1.0820350876E+01
   -1.0723919259E+01   -1.0629073533E+01   -1.0535780902E+01   -1.0444010428E+01
   -1.0353732945E+01   -1.0264920817E+01   -1.0177548208E+01   -1.0091590142E+01
   -1.0007022468E+01   -9.9238218950E+00   -9.8419654892E+00   -9.7614305025E+00
   -9.6821943189E+00   -9.6042340961E+00   -9.5275267677E+00   -9.4520489702E+00
   -9.3777765976E+00   -9.3046852507E+00   -9.2327498755E+00   -9.1619457054E+00
   -9.0922480410E+00   -9.0236325330E+00   -8.9560742989E+00   -8.8895482438E+00
   -8.8240302998E+00   -8.7594963996E+00   -8.6959224729E+00   -8.6332853092E+00
   -8.5715618062E+00   -8.5107296820E+00   -8.4507673253E+00   -8.3916534047E+00
   -8.3333681181E+00   -8.2758916088E+00   -8.2192055318E+00   -8.1632920816E+00
   -8.1081343191E+00   -8.0537170124E+00   -8.0000253340E+00   -7.9470450105E+00
   -7.8947615913E+00   -7.8431616903E+00   -7.7922318526E+00   -7.7419591861E+00
   -7.6923310419E+00   -7.6433350581E+00   -7.5949593343E+00   -7.5471920189E+00
   -7.5000218966E+00   -7.4534376129E+00   -7.4074285776E+00   -7.3619839208E+00
   -7.3170936225E+00   -7.2727472848E+00   -7.2289354003E+00   -7.1856480538E+00
   -7.1428761875E+00   -7.1006103467E+00   -7.0588419057E+00   -7.0175618319E+00
   -6.9767619143E+00   -6.9364335220E+00   -6.8965688193E+00   -6.8571595834E+00
   -6.8181983017E+00   -6.7796771578E+00   -6.7415889277E+00   -6.7039261958E+00
   -6.6666819940E+00   -6.6298493024E+00   -6.5934213775E+00   -6.5573915912E+00
   -6.5217533958E+00   -6.4865005487E+00   -6.4516266753E+00   -6.4171259077E+00
   -6.3829920286E+00   -6.3492194731E+00   -6.3158023391E+00   -6.2827351755E+00
   -6.2500124529E+00   -6.2176288061E+00   -6.1855790773E+00   -6.1538579700E+00
   -6.1224606556E+00   -6.0913819933E+00   -6.0606173273E+00   -6.0301618363E+00
   -6.0000108831E+00   -5.9701600110E+00   -5.9406045881E+00   -5.9113404488E+00
   -5.8823631461E+00   -5.8536685775E+00   -5.8252526294E+00   -5.7971111613E+00
   -5.7692403752E+00   -5.7416362100E+00   -5.7142949865E+00   -5.6872129429E+00
   -5.6603863281E+00   -5.6338116912E+00   -5.6074853375E+00   -5.5814039151E+00
   -5.5555640234E+00   -5.5299622093E+00   -5.5045953533E+00   -5.4794601105E+00
   -5.4545533721E+00   -5.4298721059E+00   -5.4054130811E+00   -5.3811734909E+00
   -5.3571503300E+00   -5.3333406578E+00   -5.3097417622E+00   -5.2863507315E+00
   -5.2631648926E+00   -5.2401816169E+00   -5.2173980936E+00   -5.1948118867E+00
   -5.1724204158E+00   -5.1502210727E+00   -5.1282115312E+00   -5.1063892934E+00
   -5.0847519528E+00   -5.0632972679E+00   -5.0420228317E+00   -5.0209264178E+00
   -5.0000058669E+00   -4.9792588640E+00   -4.9586833414E+00   -4.9382772210E+00
   -4.9180382810E+00   -4.8979645914E+00   -4.8780541558E+00   -4.8583048452E+00
   -4.8387148488E+00   -4.8192822505E+00   -4.8000050190E+00   -4.7808814396E+00
   -4.7619096800E+00   -4.7430878039E+00   -4.7244141787E+00   -4.7058870601E+00
   -4.6875045923E+00   -4.6692652239E+00   -4.6511672921E+00   -4.6332090294E+00
   -4.6153889428E+00   -4.5977054540E+00   -4.5801568835E+00   -4.5627417833E+00
   -4.5454586603E+00   -4.5283059244E+00   -4.5112821590E+00   -4.4943859564E+00
   -4.4776158155E+00   -4.4609703397E+00   -4.4444482061E+00   -4.4280480046E+00
   -4.4117683469E+00   -4.3956079943E+00   -4.3795656280E+00   -4.3636398600E+00
   -4.3478295328E+00   -4.3321333976E+00   -4.3165501260E+00   -4.3010785727E+00
   -4.2857175687E+00   -4.2704658757E+00   -4.2553223226E+00   -4.2402858277E+00
   -4.2253552455E+00   -4.2105293719E+00   -4.1958072086E+00   -4.1811876735E+00
   -4.1666696181E+00   -4.1522520311E+00   -4.1379339102E+00   -4.1237141998E+00
   -4.1095918344E+00   -4.0955658990E+00   -4.0816354098E+00   -4.0677993149E+00
   -4.0540567104E+00   -4.0404066809E+00   -4.0268482676E+00   -4.0133804954E+00
   -4.0000025376E+00   -3.9867134998E+00   -3.9735124310E+00   -3.9603984899E+00
   -3.9473708547E+00   -3.9344286693E+00   -3.9215710075E+00   -3.9087971346E+00
   -3.8961062377E+00   -3.8834974719E+00   -3.8709700188E+00   -3.8585231549E+00
   -3.8461561053E+00   -3.8338680402E+00   -3.8216582366E+00   -3.8095259824E+00
   -3.7974705387E+00   -3.7854910953E+00   -3.7735870104E+00   -3.7617575853E+00
   -3.7500021049E+00   -3.7383198143E+00   -3.7267101070E+00   -3.7151723115E+00
   -3.7037057331E+00   -3.6923096794E+00   -3.6809835627E+00   -3.6697267428E+00
   -3.6585385483E+00   -3.6474183382E+00   -3.6363655456E+00   -3.6253795600E+00
   -3.6144597357E+00   -3.6036054730E+00   -3.5928162276E+00   -3.5820914174E+00
   -3.5714304245E+00   -3.5608326807E+00   -3.5502976664E+00   -3.5398248267E+00
   -3.5294135733E+00   -3.5190633603E+00   -3.5087736949E+00   -3.4985440481E+00
   -3.4883738632E+00   -3.4782626081E+00   -3.4682098185E+00   -3.4582149901E+00
   -3.4482775997E+00   -3.4383971209E+00   -3.4285731197E+00   -3.4188051153E+00
   -3.4090926196E+00   -3.3994351050E+00   -3.3898321689E+00   -3.3802833528E+00
   -3.3707881981E+00   -3.3613461919E+00   -3.3519569413E+00   -3.3426200166E+00
   -3.3333349807E+00   -3.3241013588E+00   -3.3149187393E+00   -3.3057867296E+00
   -3.2967049130E+00   -3.2876728551E+00   -3.2786901196E+00   -3.2697563516E+00
   -3.2608711535E+00   -3.2520341282E+00   -3.2432448261E+00   -3.2345029131E+00
   -3.2258080158E+00   -3.2171597554E+00   -3.2085577253E+00   -3.2000015527E+00
   -3.1914909063E+00   -3.1830254250E+00   -3.1746047475E+00   -3.1662284583E+00
   -3.1578962671E+00   -3.1496078296E+00   -3.1413628013E+00   -3.1331608124E+00
   -3.1250015218E+00   -3.1168846307E+00   -3.1088098106E+00   -3.1007767333E+00
   -3.0927850247E+00   -3.0848344083E+00   -3.0769245783E+00   -3.0690552214E+00
   -3.0612260127E+00   -3.0534366145E+00   -3.0456867680E+00   -3.0379761750E+00
   -3.0303045369E+00   -3.0226715284E+00   -3.0150768607E+00   -3.0075202737E+00
   -3.0000014829E+00   -2.9925202036E+00   -2.9850761134E+00   -2.9776689640E+00
   -2.9702984958E+00   -2.9629644376E+00   -2.9556665181E+00   -2.9484044206E+00
   -2.9411779288E+00   -2.9339867863E+00   -2.9268307345E+00   -2.9197095110E+00
   -2.9126228189E+00   -2.9055704545E+00   -2.8985521711E+00   -2.8915677222E+00
   -2.8846168542E+00   -2.8776992902E+00   -2.8708148339E+00   -2.8639632503E+00
   -2.8571443042E+00   -2.8503577534E+00   -2.8436033339E+00   -2.8368808592E+00
   -2.8301901052E+00   -2.8235308478E+00   -2.8169028578E+00   -2.8103058783E+00
   -2.8037397344E+00   -2.7972042122E+00   -2.7906990983E+00   -2.7842241787E+00
   -2.7777791977E+00   -2.7713639934E+00   -2.7649783622E+00   -2.7586221004E+00
   -2.7522950041E+00   -2.7459968352E+00   -2.7397274247E+00   -2.7334865857E+00
   -2.7272741241E+00   -2.7210898456E+00   -2.7149335314E+00   -2.7088050001E+00
   -2.7027040833E+00   -2.6966305960E+00   -2.6905843529E+00   -2.6845651568E+00
   -2.6785728087E+00   -2.6726071603E+00   -2.6666680349E+00   -2.6607552561E+00
   -2.6548686472E+00   -2.6490079955E+00   -2.6431731656E+00   -2.6373639918E+00
   -2.6315803056E+00   -2.6258219389E+00   -2.6200887034E+00   -2.6143804356E+00
   -2.6086969939E+00   -2.6030382177E+00   -2.5974039466E+00   -2.5917940193E+00
   -2.5862082401E+00   -2.5806464919E+00   -2.5751086219E+00   -2.5695944768E+00
   -2.5641039039E+00   -2.5586367327E+00   -2.5531928111E+00   -2.5477720128E+00
   -2.5423741919E+00   -2.5369992025E+00   -2.5316468987E+00   -2.5263171048E+00
   -2.5210097047E+00   -2.5157245649E+00   -2.5104615464E+00   -2.5052205101E+00
   -2.5000013114E+00   -2.4948037884E+00   -2.4896278377E+00   -2.4844733265E+00
   -2.4793401225E+00   -2.4742280929E+00   -2.4691370915E+00   -2.4640669811E+00
   -2.4590176557E+00   -2.4539889890E+00   -2.4489808546E+00   -2.4439931260E+00
   -2.4390256578E+00   -2.4340783313E+00   -2.4291510404E+00   -2.4242436647E+00
   -2.4193560835E+00   -2.4144881763E+00   -2.4096398009E+00   -2.4048108512E+00
   -2.4000012232E+00   -2.3952108020E+00   -2.3904394726E+00   -2.3856871201E+00
   -2.3809536073E+00   -2.3762388357E+00   -2.3715427053E+00   -2.3668651064E+00
   -2.3622059296E+00   -2.3575650652E+00   -2.3529423831E+00   -2.3483377871E+00
   -2.3437511832E+00   -2.3391824669E+00   -2.3346315339E+00   -2.3300982796E+00
   -2.3255825829E+00   -2.3210843448E+00   -2.3166034795E+00   -2.3121398875E+00
   -2.3076934690E+00   -2.3032641246E+00   -2.2988517438E+00   -2.2944562205E+00
   -2.2900774787E+00   -2.2857154234E+00   -2.2813699597E+00   -2.2770409926E+00
   -2.2727284241E+00   -2.2684321370E+00   -2.2641520665E+00   -2.2598881220E+00
   -2.2556402130E+00   -2.2514082489E+00   -2.2471921393E+00   -2.2429917718E+00
   -2.2388070743E+00   -2.2346379670E+00   -2.2304843637E+00   -2.2263461778E+00
   -2.2222233233E+00   -2.2181157037E+00   -2.2140232265E+00   -2.2099458270E+00
   -2.2058834229E+00   -2.2018359319E+00   -2.1978032718E+00   -2.1937853603E+00
   -2.1897820916E+00   -2.1857934068E+00   -2.1818192306E+00   -2.1778594848E+00
   -2.1739140909E+00   -2.1699829704E+00   -2.1660660367E+00   -2.1621632023E+00
   -2.1582744107E+00   -2.1543995869E+00   -2.1505386563E+00   -2.1466915441E+00
   -2.1428581754E+00   -2.1390384584E+00   -2.1352323287E+00   -2.1314397240E+00
   -2.1276605727E+00   -2.1238948037E+00   -2.1201423456E+00   -2.1164031271E+00
   -2.1126770534E+00   -2.1089640782E+00   -2.1052641350E+00   -2.1015771558E+00
   -2.0979030726E+00   -2.0942418175E+00   -2.0905933191E+00   -2.0869574920E+00
   -2.0833342924E+00   -2.0797236556E+00   -2.0761255167E+00   -2.0725398109E+00
   -2.0689664733E+00   -2.0654054333E+00   -2.0618566145E+00   -2.0583199733E+00
   -2.0547954477E+00   -2.0512829760E+00   -2.0477824964E+00   -2.0442939471E+00
   -2.0408172597E+00   -2.0373523628E+00   -2.0338992144E+00   -2.0304577555E+00
   -2.0270279273E+00   -2.0236096708E+00   -2.0202029270E+00   -2.0168076319E+00
   -2.0134237147E+00   -2.0100511367E+00   -2.0066898419E+00   -2.0033397740E+00
   -2.0000008769E+00   -1.9966730944E+00
  </PP_LOCAL>
 <PP_NONLOCAL>
   <PP_BETA.1
       type="real"
       size=" 602"
       columns="4"
       index="1"
       angular_momentum="0"
       cutoff_radius_index=" 152"
       cutoff_radius="    1.5100000000E+00" >
    0.0000000000E+00   -1.2574292503E-02   -2.4662385889E-02   -3.5789085727E-02
   -4.5501011923E-02   -5.3377021512E-02   -5.9038059156E-02   -6.2156259328E-02
   -6.2463136575E-02   -5.9756715188E-02   -5.3907467413E-02   -4.4862948701E-02
   -3.2651040489E-02   -1.7381733820E-02    7.5258801316E-04    2.1478385554E-02
    4.4443709191E-02    6.9222420960E-02    9.5319833912E-02    1.2217968830E-01
    1.4919235319E-01    1.7570413377E-01    2.0102753078E-01    2.2445230065E-01
    2.4525712462E-01    2.6272169364E-01    2.7613907032E-01    2.8482801837E-01
    2.8814518136E-01    2.8549689375E-01    2.7635040617E-01    2.6024434477E-01
    2.3679821862E-01    2.0572070449E-01    1.6681708149E-01    1.1999456405E-01
    6.5266979626E-02    2.7570553028E-03   -6.7302268194E-02   -1.4456856101E-01
   -2.2859225819E-01   -3.1882058110E-01   -4.1460310608E-01   -5.1519886852E-01
   -6.1978490233E-01   -7.2746609372E-01   -8.3728620709E-01   -9.4823991845E-01
   -1.0592856618E+00   -1.1693587700E+00   -1.2773862687E+00   -1.3823003562E+00
   -1.4830519532E+00   -1.5786263243E+00   -1.6680552038E+00   -1.7504294753E+00
   -1.8249133731E+00   -1.8907518525E+00   -1.9472852192E+00   -1.9939527635E+00
   -2.0303041471E+00   -2.0560026622E+00   -2.0708285120E+00   -2.0746849861E+00
   -2.0675943440E+00   -2.0496991916E+00   -2.0212609215E+00   -1.9826528364E+00
   -1.9343548069E+00   -1.8769479335E+00   -1.8111040448E+00   -1.7375762529E+00
   -1.6571883736E+00   -1.5708236085E+00   -1.4794116640E+00   -1.3839161802E+00