<UPF version="2.0.1">
  <PP_INFO>

 This pseudopotential file has been produced using the code
 ONCVPSP  (Optimized Norm-Conservinng Vanderbilt PSeudopotential)
 fully-relativistic version 2.1.1, 03/26/2014 by D. R. Hamann
 The code is available through a link at URL www.mat-simresearch.com.
 Documentation with the package provides a full description of the
 input data below.

 While it is not required under the terms of the GNU GPL, it is
 suggested that you cite D. R. Hamann, Phys. Rev. B 88, 085117 (2013)
 in any publication using these pseudopotentials.

 -----

 This pseudopotential was produced with the SG15 1.0 and/or 1.1
 parameter sets, the Schlipf-Gygi norm-conserving pseudopotential
 library. For details of the construction and testing of the
 pseudopotential please refer to:

 M. Schlipf, F. Gygi, Comp. Phys. Comm. 196, 36 (2015)
 http://dx.doi.org/10.1016/j.cpc.2015.05.011

 The above authors kindly ask that you include this reference in all
 publications associated to this pseudopotential.

 Please note this fully-relativistic version does not employ the
 above self-consistent procedure at the fully-relativistic level.

 -----

 This pseudopotential was produced by Peter Scherpelz for the purpose
 of performing GW calculations with spin-orbit-coupling. Please see
 the publication:

 P. Scherpelz, M. Govoni, I. Hamada, G. Galli; J. Chem. Theory Comput. (2016)
 http://dx.doi.org/10.1021/acs.jctc.6b00114

 If you use these pseudopotentials in your work, we also kindly ask
 that you cite the above publication.

 -----

 This work is licensed under the Creative Commons Attribution-ShareAlike 
 4.0 International License. To view a copy of this license, visit 
 http://creativecommons.org/licenses/by-sa/4.0/ or send a letter to 
 Creative Commons, PO Box 1866, Mountain View, CA 94042, USA.

 The SG15 library is Copyright 2015 The Regents of the University of
 California.  Further modifications of these files are Copyright 2016
 Peter Scherpelz.

    <PP_INPUTFILE>
# ATOM AND REFERENCE CONFIGURATION
# atsym  z    nc    nv    iexc   psfile
  Pb 82.00    12     3     4      upf
#
#   n    l    f        energy (Ha)
    1    0    2.00
    2    0    2.00
    2    1    6.00
    3    0    2.00
    3    1    6.00
    3    2   10.00
    4    0    2.00
    4    1    6.00
    4    2   10.00
    4    3   14.00
    5    0    2.00
    5    1    6.00
    5    2   10.00
    6    0    2.00
    6    1    2.00
#
# PSEUDOPOTENTIAL AND OPTIMIZATION
# lmax
    3
#
#   l,   rc,     ep,   ncon, nbas, qcut
    0    3.56   -0.44    5    8    3.96
    1    3.60   -0.11    5    8    3.58
    2    3.31   -0.74    5    8    6.05
    3    3.60    0.27    5    8    5.62
#
# LOCAL POTENTIAL
# lloc, lpopt,  rc(5),   dvloc0
    4    5      2.90       0.00
#
# VANDERBILT-KLEINMAN-BYLANDER PROJECTORs
# l, nproj, debl
    0    2    1.1484
    1    2    1.0863
    2    2    1.1336
    3    2    1.2264
#
# MODEL CORE CHARGE
# icmod, fcfact
    0    0.00
#
# LOG DERIVATIVE ANALYSIS
# epsh1, epsh2, depsh
   -5.00    3.00    0.02
#
# OUTPUT GRID
# rlmax, drl
    6.00    0.01
#
# TEST CONFIGURATIONS
# ncnf
    0
# nvcnf
#   n    l    f
    </PP_INPUTFILE>
  </PP_INFO>
  <!--                               -->
  <!-- END OF HUMAN READABLE SECTION -->
  <!--                               -->
    <PP_HEADER
       generated="Generated using ONCVPSP code by D. R. Hamann"
       author="anonymous"
       date="150703"
       comment=""
       element="Pb"
       pseudo_type="NC"
       relativistic="full"
       is_ultrasoft="F"
       is_paw="F"
       is_coulomb="F"
       has_so="T"
       has_wfc="F"
       has_gipaw="F"
       core_correction="F"
       functional="PBE"
       z_valence="   14.00"
       total_psenergy="  -5.62928505225E+01"
       rho_cutoff="   6.01000000000E+00"
       l_max="3"
       l_local="-1"
       mesh_size="   602"
       number_of_wfc="0"
       number_of_proj="14"/>
 <PP_MESH>
   <PP_R type="real"  size=" 602" columns="8">
    0.0000    0.0100    0.0200    0.0300    0.0400    0.0500    0.0600    0.0700
    0.0800    0.0900    0.1000    0.1100    0.1200    0.1300    0.1400    0.1500
    0.1600    0.1700    0.1800    0.1900    0.2000    0.2100    0.2200    0.2300
    0.2400    0.2500    0.2600    0.2700    0.2800    0.2900    0.3000    0.3100
    0.3200    0.3300    0.3400    0.3500    0.3600    0.3700    0.3800    0.3900
    0.4000    0.4100    0.4200    0.4300    0.4400    0.4500    0.4600    0.4700
    0.4800    0.4900    0.5000    0.5100    0.5200    0.5300    0.5400    0.5500
    0.5600    0.5700    0.5800    0.5900    0.6000    0.6100    0.6200    0.6300
    0.6400    0.6500    0.6600    0.6700    0.6800    0.6900    0.7000    0.7100
    0.7200    0.7300    0.7400    0.7500    0.7600    0.7700    0.7800    0.7900
    0.8000    0.8100    0.8200    0.8300    0.8400    0.8500    0.8600    0.8700
    0.8800    0.8900    0.9000    0.9100    0.9200    0.9300    0.9400    0.9500
    0.9600    0.9700    0.9800    0.9900    1.0000    1.0100    1.0200    1.0300
    1.0400    1.0500    1.0600    1.0700    1.0800    1.0900    1.1000    1.1100
    1.1200    1.1300    1.1400    1.1500    1.1600    1.1700    1.1800    1.1900
    1.2000    1.2100    1.2200    1.2300    1.2400    1.2500    1.2600    1.2700
    1.2800    1.2900    1.3000    1.3100    1.3200    1.3300    1.3400    1.3500
    1.3600    1.3700    1.3800    1.3900    1.4000    1.4100    1.4200    1.4300
    1.4400    1.4500    1.4600    1.4700    1.4800    1.4900    1.5000    1.5100
    1.5200    1.5300    1.5400    1.5500    1.5600    1.5700    1.5800    1.5900
    1.6000    1.6100    1.6200    1.6300    1.6400    1.6500    1.6600    1.6700
    1.6800    1.6900    1.7000    1.7100    1.7200    1.7300    1.7400    1.7500
    1.7600    1.7700    1.7800    1.7900    1.8000    1.8100    1.8200    1.8300
    1.8400    1.8500    1.8600    1.8700    1.8800    1.8900    1.9000    1.9100
    1.9200    1.9300    1.9400    1.9500    1.9600    1.9700    1.9800    1.9900
    2.0000    2.0100    2.0200    2.0300    2.0400    2.0500    2.0600    2.0700
    2.0800    2.0900    2.1000    2.1100    2.1200    2.1300    2.1400    2.1500
    2.1600    2.1700    2.1800    2.1900    2.2000    2.2100    2.2200    2.2300
    2.2400    2.2500    2.2600    2.2700    2.2800    2.2900    2.3000    2.3100
    2.3200    2.3300    2.3400    2.3500    2.3600    2.3700    2.3800    2.3900
    2.4000    2.4100    2.4200    2.4300    2.4400    2.4500    2.4600    2.4700
    2.4800    2.4900    2.5000    2.5100    2.5200    2.5300    2.5400    2.5500
    2.5600    2.5700    2.5800    2.5900    2.6000    2.6100    2.6200    2.6300
    2.6400    2.6500    2.6600    2.6700    2.6800    2.6900    2.7000    2.7100
    2.7200    2.7300    2.7400    2.7500    2.7600    2.7700    2.7800    2.7900
    2.8000    2.8100    2.8200    2.8300    2.8400    2.8500    2.8600    2.8700
    2.8800    2.8900    2.9000    2.9100    2.9200    2.9300    2.9400    2.9500
    2.9600    2.9700    2.9800    2.9900    3.0000    3.0100    3.0200    3.0300
    3.0400    3.0500    3.0600    3.0700    3.0800    3.0900    3.1000    3.1100
    3.1200    3.1300    3.1400    3.1500    3.1600    3.1700    3.1800    3.1900
    3.2000    3.2100    3.2200    3.2300    3.2400    3.2500    3.2600    3.2700
    3.2800    3.2900    3.3000    3.3100    3.3200    3.3300    3.3400    3.3500
    3.3600    3.3700    3.3800    3.3900    3.4000    3.4100    3.4200    3.4300
    3.4400    3.4500    3.4600    3.4700    3.4800    3.4900    3.5000    3.5100
    3.5200    3.5300    3.5400    3.5500    3.5600    3.5700    3.5800    3.5900
    3.6000    3.6100    3.6200    3.6300    3.6400    3.6500    3.6600    3.6700
    3.6800    3.6900    3.7000    3.7100    3.7200    3.7300    3.7400    3.7500
    3.7600    3.7700    3.7800    3.7900    3.8000    3.8100    3.8200    3.8300
    3.8400    3.8500    3.8600    3.8700    3.8800    3.8900    3.9000    3.9100
    3.9200    3.9300    3.9400    3.9500    3.9600    3.9700    3.9800    3.9900
    4.0000    4.0100    4.0200    4.0300    4.0400    4.0500    4.0600    4.0700
    4.0800    4.0900    4.1000    4.1100    4.1200    4.1300    4.1400    4.1500
    4.1600    4.1700    4.1800    4.1900    4.2000    4.2100    4.2200    4.2300
    4.2400    4.2500    4.2600    4.2700    4.2800    4.2900    4.3000    4.3100
    4.3200    4.3300    4.3400    4.3500    4.3600    4.3700    4.3800    4.3900
    4.4000    4.4100    4.4200    4.4300    4.4400    4.4500    4.4600    4.4700
    4.4800    4.4900    4.5000    4.5100    4.5200    4.5300    4.5400    4.5500
    4.5600    4.5700    4.5800    4.5900    4.6000    4.6100    4.6200    4.6300
    4.6400    4.6500    4.6600    4.6700    4.6800    4.6900    4.7000    4.7100
    4.7200    4.7300    4.7400    4.7500    4.7600    4.7700    4.7800    4.7900
    4.8000    4.8100    4.8200    4.8300    4.8400    4.8500    4.8600    4.8700
    4.8800    4.8900    4.9000    4.9100    4.9200    4.9300    4.9400    4.9500
    4.9600    4.9700    4.9800    4.9900    5.0000    5.0100    5.0200    5.0300
    5.0400    5.0500    5.0600    5.0700    5.0800    5.0900    5.1000    5.1100
    5.1200    5.1300    5.1400    5.1500    5.1600    5.1700    5.1800    5.1900
    5.2000    5.2100    5.2200    5.2300    5.2400    5.2500    5.2600    5.2700
    5.2800    5.2900    5.3000    5.3100    5.3200    5.3300    5.3400    5.3500
    5.3600    5.3700    5.3800    5.3900    5.4000    5.4100    5.4200    5.4300
    5.4400    5.4500    5.4600    5.4700    5.4800    5.4900    5.5000    5.5100
    5.5200    5.5300    5.5400    5.5500    5.5600    5.5700    5.5800    5.5900
    5.6000    5.6100    5.6200    5.6300    5.6400    5.6500    5.6600    5.6700
    5.6800    5.6900    5.7000    5.7100    5.7200    5.7300    5.7400    5.7500
    5.7600    5.7700    5.7800    5.7900    5.8000    5.8100    5.8200    5.8300
    5.8400    5.8500    5.8600    5.8700    5.8800    5.8900    5.9000    5.9100
    5.9200    5.9300    5.9400    5.9500    5.9600    5.9700    5.9800    5.9900
    6.0000    6.0100
   </PP_R>
   <PP_RAB type="real"  size=" 602" columns="8">
    0.0100    0.0100    0.0100    0.0100    0.0100    0.0100    0.0100    0.0100
    0.0100    0.0100    0.0100    0.0100    0.0100    0.0100    0.0100    0.0100
    0.0100    0.0100    0.0100    0.0100    0.0100    0.0100    0.0100    0.0100
    0.0100    0.0100    0.0100    0.0100    0.0100    0.0100    0.0100    0.0100
    0.0100    0.0100    0.0100    0.0100    0.0100    0.0100    0.0100    0.0100
    0.0100    0.0100    0.0100    0.0100    0.0100    0.0100    0.0100    0.0100
    0.0100    0.0100    0.0100    0.0100    0.0100    0.0100    0.0100    0.0100
    0.0100    0.0100    0.0100    0.0100    0.0100    0.0100    0.0100    0.0100
    0.0100    0.0100    0.0100    0.0100    0.0100    0.0100    0.0100    0.0100
    0.0100    0.0100    0.0100    0.0100    0.0100    0.0100    0.0100    0.0100
    0.0100    0.0100    0.0100    0.0100    0.0100    0.0100    0.0100    0.0100
    0.0100    0.0100    0.0100    0.0100    0.0100    0.0100    0.0100    0.0100
    0.0100    0.0100    0.0100    0.0100    0.0100    0.0100    0.0100    0.0100
    0.0100    0.0100    0.0100    0.0100    0.0100    0.0100    0.0100    0.0100
    0.0100    0.0100    0.0100    0.0100    0.0100    0.0100    0.0100    0.0100
    0.0100    0.0100    0.0100    0.0100    0.0100    0.0100    0.0100    0.0100
    0.0100    0.0100    0.0100    0.0100    0.0100    0.0100    0.0100    0.0100
    0.0100    0.0100    0.0100    0.0100    0.0100    0.0100    0.0100    0.0100
    0.0100    0.0100    0.0100    0.0100    0.0100    0.0100    0.0100    0.0100
    0.0100    0.0100    0.0100    0.0100    0.0100    0.0100    0.0100    0.0100
    0.0100    0.0100    0.0100    0.0100    0.0100    0.0100    0.0100    0.0100
    0.0100    0.0100    0.0100    0.0100    0.0100    0.0100    0.0100    0.0100
    0.0100    0.0100    0.0100    0.0100    0.0100    0.0100    0.0100    0.0100
    0.0100    0.0100    0.0100    0.0100    0.0100    0.0100    0.0100    0.0100
    0.0100    0.0100    0.0100    0.0100    0.0100    0.0100    0.0100    0.0100
    0.0100    0.0100    0.0100    0.0100    0.0100    0.0100    0.0100    0.0100
    0.0100    0.0100    0.0100    0.0100    0.0100    0.0100    0.0100    0.0100
    0.0100    0.0100    0.0100    0.0100    0.0100    0.0100    0.0100    0.0100
    0.0100    0.0100    0.0100    0.0100    0.0100    0.0100    0.0100    0.0100
    0.0100    0.0100    0.0100    0.0100    0.0100    0.0100    0.0100    0.0100
    0.0100    0.0100    0.0100    0.0100    0.0100    0.0100    0.0100    0.0100
    0.0100    0.0100    0.0100    0.0100    0.0100    0.0100    0.0100    0.0100
    0.0100    0.0100    0.0100    0.0100    0.0100    0.0100    0.0100    0.0100
    0.0100    0.0100    0.0100    0.0100    0.0100    0.0100    0.0100    0.0100
    0.0100    0.0100    0.0100    0.0100    0.0100    0.0100    0.0100    0.0100
    0.0100    0.0100    0.0100    0.0100    0.0100    0.0100    0.0100    0.0100
    0.0100    0.0100    0.0100    0.0100    0.0100    0.0100    0.0100    0.0100
    0.0100    0.0100    0.0100    0.0100    0.0100    0.0100    0.0100    0.0100
    0.0100    0.0100    0.0100    0.0100    0.0100    0.0100    0.0100    0.0100
    0.0100    0.0100    0.0100    0.0100    0.0100    0.0100    0.0100    0.0100
    0.0100    0.0100    0.0100    0.0100    0.0100    0.0100    0.0100    0.0100
    0.0100    0.0100    0.0100    0.0100    0.0100    0.0100    0.0100    0.0100
    0.0100    0.0100    0.0100    0.0100    0.0100    0.0100    0.0100    0.0100
    0.0100    0.0100    0.0100    0.0100    0.0100    0.0100    0.0100    0.0100
    0.0100    0.0100    0.0100    0.0100    0.0100    0.0100    0.0100    0.0100
    0.0100    0.0100    0.0100    0.0100    0.0100    0.0100    0.0100    0.0100
    0.0100    0.0100    0.0100    0.0100    0.0100    0.0100    0.0100    0.0100
    0.0100    0.0100    0.0100    0.0100    0.0100    0.0100    0.0100    0.0100
    0.0100    0.0100    0.0100    0.0100    0.0100    0.0100    0.0100    0.0100
    0.0100    0.0100    0.0100    0.0100    0.0100    0.0100    0.0100    0.0100
    0.0100    0.0100    0.0100    0.0100    0.0100    0.0100    0.0100    0.0100
    0.0100    0.0100    0.0100    0.0100    0.0100    0.0100    0.0100    0.0100
    0.0100    0.0100    0.0100    0.0100    0.0100    0.0100    0.0100    0.0100
    0.0100    0.0100    0.0100    0.0100    0.0100    0.0100    0.0100    0.0100
    0.0100    0.0100    0.0100    0.0100    0.0100    0.0100    0.0100    0.0100
    0.0100    0.0100    0.0100    0.0100    0.0100    0.0100    0.0100    0.0100
    0.0100    0.0100    0.0100    0.0100    0.0100    0.0100    0.0100    0.0100
    0.0100    0.0100    0.0100    0.0100    0.0100    0.0100    0.0100    0.0100
    0.0100    0.0100    0.0100    0.0100    0.0100    0.0100    0.0100    0.0100
    0.0100    0.0100    0.0100    0.0100    0.0100    0.0100    0.0100    0.0100
    0.0100    0.0100    0.0100    0.0100    0.0100    0.0100    0.0100    0.0100
    0.0100    0.0100    0.0100    0.0100    0.0100    0.0100    0.0100    0.0100
    0.0100    0.0100    0.0100    0.0100    0.0100    0.0100    0.0100    0.0100
    0.0100    0.0100    0.0100    0.0100    0.0100    0.0100    0.0100    0.0100
    0.0100    0.0100    0.0100    0.0100    0.0100    0.0100    0.0100    0.0100
    0.0100    0.0100    0.0100    0.0100    0.0100    0.0100    0.0100    0.0100
    0.0100    0.0100    0.0100    0.0100    0.0100    0.0100    0.0100    0.0100
    0.0100    0.0100    0.0100    0.0100    0.0100    0.0100    0.0100    0.0100
    0.0100    0.0100    0.0100    0.0100    0.0100    0.0100    0.0100    0.0100
    0.0100    0.0100    0.0100    0.0100    0.0100    0.0100    0.0100    0.0100
    0.0100    0.0100    0.0100    0.0100    0.0100    0.0100    0.0100    0.0100
    0.0100    0.0100    0.0100    0.0100    0.0100    0.0100    0.0100    0.0100
    0.0100    0.0100    0.0100    0.0100    0.0100    0.0100    0.0100    0.0100
    0.0100    0.0100    0.0100    0.0100    0.0100    0.0100    0.0100    0.0100
    0.0100    0.0100    0.0100    0.0100    0.0100    0.0100    0.0100    0.0100
    0.0100    0.0100
   </PP_RAB>
 </PP_MESH>
  <PP_LOCAL type="real"  size=" 602" columns="4">
   -2.2153286350E+01   -2.2184930778E+01   -2.2202218996E+01   -2.2253393300E+01
   -2.2386695986E+01   -2.2685727755E+01   -2.3214459188E+01   -2.3826869858E+01
   -2.4069081111E+01   -2.3653933964E+01   -2.2910933884E+01   -2.2316393913E+01
   -2.2010522100E+01   -2.1905358147E+01   -2.1892062204E+01   -2.1906970191E+01
   -2.1923341942E+01   -2.1933078988E+01   -2.1935391391E+01   -2.1931677740E+01
   -2.1923632843E+01   -2.1912698365E+01   -2.1899988600E+01   -2.1886349972E+01
   -2.1872437109E+01   -2.1858772978E+01   -2.1845788744E+01   -2.1833847430E+01
   -2.1823255561E+01   -2.1814266810E+01   -2.1807080384E+01   -2.1801836165E+01
   -2.1798608103E+01   -2.1797397240E+01   -2.1798124906E+01   -2.1800627948E+01
   -2.1804655707E+01   -2.1809870878E+01   -2.1815852979E+01   -2.1822106952E+01
   -2.1828075311E+01   -2.1833154361E+01   -2.1836713857E+01   -2.1838119272E+01
   -2.1836755559E+01   -2.1832051149E+01   -2.1823500803E+01   -2.1810685941E+01
   -2.1793291201E+01   -2.1771115779E+01   -2.1744080760E+01   -2.1712229445E+01
   -2.1675720989E+01   -2.1634821347E+01   -2.1589887888E+01   -2.1541349607E+01
   -2.1489688694E+01   -2.1435416975E+01   -2.1379056305E+01   -2.1321119568E+01
   -2.1262093357E+01   -2.1202426790E+01   -2.1142521394E+01   -2.1082725418E+01
   -2.1023333756E+01   -2.0964586383E+01   -2.0906672555E+01   -2.0849735922E+01
   -2.0793879541E+01   -2.0739170734E+01   -2.0685648307E+01   -2.0633327375E+01
   -2.0582204248E+01   -2.0532260302E+01   -2.0483465566E+01   -2.0435781618E+01
   -2.0389163609E+01   -2.0343561847E+01   -2.0298922934E+01   -2.0255190509E+01
   -2.0212305714E+01   -2.0170207420E+01   -2.0128832293E+01   -2.0088114764E+01
   -2.0047986928E+01   -2.0008378435E+01   -1.9969216422E+01   -1.9930425457E+01
   -1.9891927588E+01   -1.9853642486E+01   -1.9815487699E+01   -1.9777379021E+01
   -1.9739230997E+01   -1.9700957540E+01   -1.9662472668E+01   -1.9623691329E+01
   -1.9584530308E+01   -1.9544909176E+01   -1.9504751131E+01   -1.9463984093E+01
   -1.9422541831E+01   -1.9380364480E+01   -1.9337399356E+01   -1.9293601516E+01
   -1.9248933889E+01   -1.9203368042E+01   -1.9156884645E+01   -1.9109472463E+01
   -1.9061128407E+01   -1.9011856676E+01   -1.8961669600E+01   -1.8910586153E+01
   -1.8858630865E+01   -1.8805833093E+01   -1.8752227007E+01   -1.8697850427E+01
   -1.8642743502E+01   -1.8586948273E+01   -1.8530508415E+01   -1.8473467916E+01
   -1.8415870801E+01   -1.8357760844E+01   -1.8299180563E+01   -1.8240171349E+01
   -1.8180773591E+01   -1.8121025065E+01   -1.8060962068E+01   -1.8000619640E+01
   -1.7940029557E+01   -1.7879222250E+01   -1.7818226746E+01   -1.7757068893E+01
   -1.7695773564E+01   -1.7634363976E+01   -1.7572860856E+01   -1.7511284314E+01
   -1.7449652469E+01   -1.7387981967E+01   -1.7326289037E+01   -1.7264587644E+01
   -1.7202891492E+01   -1.7141213148E+01   -1.7079563945E+01   -1.7017955145E+01
   -1.6956396384E+01   -1.6894897271E+01   -1.6833466499E+01   -1.6772112106E+01
   -1.6710841944E+01   -1.6649662761E+01   -1.6588581486E+01   -1.6527603947E+01
   -1.6466736004E+01   -1.6405982810E+01   -1.6345349186E+01   -1.6284839636E+01
   -1.6224458011E+01   -1.6164208182E+01   -1.6104093084E+01   -1.6044115955E+01
   -1.5984278889E+01   -1.5924584416E+01   -1.5865033925E+01   -1.5805629182E+01
   -1.5746370944E+01   -1.5687260245E+01   -1.5628297235E+01   -1.5569482277E+01
   -1.5510814948E+01   -1.5452295016E+01   -1.5393921543E+01   -1.5335693784E+01
   -1.5277610363E+01   -1.5219670116E+01   -1.5161871335E+01   -1.5104212524E+01
   -1.5046691782E+01   -1.4989307366E+01   -1.4932057341E+01   -1.4874939797E+01
   -1.4817952920E+01   -1.4761094775E+01   -1.4704363747E+01   -1.4647758070E+01
   -1.4591276357E+01   -1.4534917229E+01   -1.4478679524E+01   -1.4422562458E+01
   -1.4366565071E+01   -1.4310687343E+01   -1.4254928531E+01   -1.4199289307E+01
   -1.4143769603E+01   -1.4088370353E+01   -1.4033092401E+01   -1.3977936846E+01
   -1.3922905470E+01   -1.3867999516E+01   -1.3813221477E+01   -1.3758573154E+01
   -1.3704057180E+01   -1.3649676115E+01   -1.3595432578E+01   -1.3541329685E+01
   -1.3487370187E+01   -1.3433557366E+01   -1.3379894329E+01   -1.3326384246E+01
   -1.3273030359E+01   -1.3219835913E+01   -1.3166804007E+01   -1.3113937879E+01
   -1.3061240566E+01   -1.3008714992E+01   -1.2956364327E+01   -1.2904191124E+01
   -1.2852198270E+01   -1.2800388409E+01   -1.2748763904E+01   -1.2697327466E+01
   -1.2646081210E+01   -1.2595027433E+01   -1.2544168437E+01   -1.2493506184E+01
   -1.2443042832E+01   -1.2392780398E+01   -1.2342720858E+01   -1.2292866208E+01
   -1.2243218481E+01   -1.2193779668E+01   -1.2144551757E+01   -1.2095536955E+01
   -1.2046737286E+01   -1.1998154947E+01   -1.1949792326E+01   -1.1901651545E+01
   -1.1853735117E+01   -1.1806045586E+01   -1.1758585244E+01   -1.1711356874E+01
   -1.1664363135E+01   -1.1617606561E+01   -1.1571090019E+01   -1.1524816255E+01
   -1.1478788012E+01   -1.1433008053E+01   -1.1387479173E+01   -1.1342204168E+01
   -1.1297185576E+01   -1.1252426147E+01   -1.1207928571E+01   -1.1163695045E+01
   -1.1119728150E+01   -1.1076030352E+01   -1.1032603395E+01   -1.0989449556E+01
   -1.0946571008E+01   -1.0903968952E+01   -1.0861645223E+01   -1.0819601690E+01
   -1.0777838937E+01   -1.0736358239E+01   -1.0695161187E+01   -1.0654247705E+01
   -1.0613618417E+01   -1.0573274679E+01   -1.0533215744E+01   -1.0493441658E+01
   -1.0453953202E+01   -1.0414749357E+01   -1.0375829506E+01   -1.0337193718E+01
   -1.0298840910E+01   -1.0260769779E+01   -1.0222979662E+01   -1.0185469500E+01
   -1.0148237344E+01   -1.0111281818E+01   -1.0074601919E+01   -1.0038195127E+01
   -1.0002059542E+01   -9.9661937940E+00   -9.9305952923E+00   -9.8952616331E+00
   -9.8601908124E+00   -9.8253804821E+00   -9.7908277234E+00   -9.7565299671E+00
   -9.7224850360E+00   -9.6886896391E+00   -9.6551409281E+00   -9.6218361607E+00
   -9.5887724008E+00   -9.5559466374E+00   -9.5233559147E+00   -9.4909971995E+00
   -9.4588677386E+00   -9.4269646617E+00   -9.3952849587E+00   -9.3638258668E+00
   -9.3325847310E+00   -9.3015587915E+00   -9.2707450172E+00   -9.2401410834E+00
   -9.2097443821E+00   -9.1795521563E+00   -9.1495617996E+00   -9.1197710845E+00
   -9.0901775705E+00   -9.0607785211E+00   -9.0315718251E+00   -9.0025553253E+00
   -8.9737267402E+00   -8.9450834579E+00   -8.9166237921E+00   -8.8883456728E+00
   -8.8602468938E+00   -8.8323252816E+00   -8.8045792484E+00   -8.7770069118E+00
   -8.7496061663E+00   -8.7223752385E+00   -8.6953126297E+00   -8.6684166369E+00
   -8.6416852826E+00   -8.6151171222E+00   -8.5887107460E+00   -8.5624646169E+00
   -8.5363769102E+00   -8.5104464209E+00   -8.4846718290E+00   -8.4590517436E+00
   -8.4335845283E+00   -8.4082690999E+00   -8.3831042140E+00   -8.3580885919E+00
   -8.3332208004E+00   -8.3084997584E+00   -8.2839242702E+00   -8.2594931240E+00
   -8.2352050107E+00   -8.2110588393E+00   -8.1870534532E+00   -8.1631876826E+00
   -8.1394602737E+00   -8.1158701520E+00   -8.0924162054E+00   -8.0690973024E+00
   -8.0459122546E+00   -8.0228599824E+00   -7.9999394082E+00   -7.9771494296E+00
   -7.9544889008E+00   -7.9319567392E+00   -7.9095519086E+00   -7.8872733349E+00
   -7.8651199056E+00   -7.8430905155E+00   -7.8211842124E+00   -7.7993999629E+00
   -7.7777367258E+00   -7.7561933248E+00   -7.7347689333E+00   -7.7134625725E+00
   -7.6922732638E+00   -7.6711999156E+00   -7.6502416546E+00   -7.6293975961E+00
   -7.6086668119E+00   -7.5880483278E+00   -7.5675411931E+00   -7.5471446031E+00
   -7.5268576705E+00   -7.5066795079E+00   -7.4866091038E+00   -7.4666457241E+00
   -7.4467885332E+00   -7.4270366860E+00   -7.4073892778E+00   -7.3878454692E+00
   -7.3684045248E+00   -7.3490656385E+00   -7.3298280042E+00   -7.3106907003E+00
   -7.2916530602E+00   -7.2727143251E+00   -7.2538737264E+00   -7.2351304526E+00
   -7.2164837075E+00   -7.1979328400E+00   -7.1794771171E+00   -7.1611158058E+00
   -7.1428480886E+00   -7.1246733033E+00   -7.1065907881E+00   -7.0885998440E+00
   -7.0706997718E+00   -7.0528897578E+00   -7.0351692503E+00   -7.0175375828E+00
   -6.9999940889E+00   -6.9825380727E+00   -6.9651688185E+00   -6.9478857769E+00
   -6.9306883124E+00   -6.9135757897E+00   -6.8965475225E+00   -6.8796028754E+00
   -6.8627413057E+00   -6.8459622075E+00   -6.8292649749E+00   -6.8126489381E+00
   -6.7961135235E+00   -6.7796582006E+00   -6.7632823918E+00   -6.7469855192E+00
   -6.7307669348E+00   -6.7146261100E+00   -6.6985625322E+00   -6.6825756504E+00
   -6.6666649139E+00   -6.6508297014E+00   -6.6350695133E+00   -6.6193838601E+00
   -6.6037722166E+00   -6.5882340573E+00   -6.5727687929E+00   -6.5573759377E+00
   -6.5420550303E+00   -6.5268055700E+00   -6.5116270558E+00   -6.4965189345E+00
   -6.4814807205E+00   -6.4665119853E+00   -6.4516122512E+00   -6.4367810409E+00
   -6.4220178416E+00   -6.4073221548E+00   -6.3926935888E+00   -6.3781316883E+00
   -6.3636359980E+00   -6.3492060505E+00   -6.3348413220E+00   -6.3205414613E+00
   -6.3063060343E+00   -6.2921346069E+00   -6.2780267451E+00   -6.2639819369E+00
   -6.2499998268E+00   -6.2360800166E+00   -6.2222220924E+00   -6.2084256404E+00
   -6.1946902022E+00   -6.1810153694E+00   -6.1674007952E+00   -6.1538460850E+00
   -6.1403508442E+00   -6.1269146726E+00   -6.1135370993E+00   -6.1002178306E+00
   -6.0869564905E+00   -6.0737527025E+00   -6.0606060905E+00   -6.0475162274E+00
   -6.0344827603E+00   -6.0215053678E+00   -6.0085836912E+00   -5.9957173716E+00
   -5.9829060479E+00   -5.9701492825E+00   -5.9574468149E+00   -5.9447983031E+00
   -5.9322034051E+00   -5.9196617788E+00   -5.9071730474E+00   -5.8947368609E+00
   -5.8823529423E+00   -5.8700209656E+00   -5.8577406046E+00   -5.8455115332E+00
   -5.8333333658E+00   -5.8212058245E+00   -5.8091286206E+00   -5.7971014431E+00
   -5.7851239812E+00   -5.7731959240E+00   -5.7613168835E+00   -5.7494866382E+00
   -5.7377048932E+00   -5.7259713521E+00   -5.7142857186E+00   -5.7026476836E+00
   -5.6910569003E+00   -5.6795131510E+00   -5.6680161531E+00   -5.6565656240E+00
   -5.6451612810E+00   -5.6338028209E+00   -5.6224899297E+00   -5.6112223932E+00
   -5.5999999420E+00   -5.5888223067E+00   -5.5776892179E+00   -5.5666003829E+00
   -5.5555555079E+00   -5.5445543871E+00   -5.5335967636E+00   -5.5226823807E+00
   -5.5118109814E+00   -5.5009822886E+00   -5.4901960163E+00   -5.4794519719E+00
   -5.4687499106E+00   -5.4580895873E+00   -5.4474707573E+00   -5.4368931632E+00
   -5.4263565160E+00   -5.4158606403E+00   -5.4054053026E+00   -5.3949902694E+00
   -5.3846153073E+00   -5.3742801826E+00   -5.3639845940E+00   -5.3537283861E+00
   -5.3435113365E+00   -5.3333332227E+00   -5.3231938221E+00   -5.3130929120E+00
   -5.3030302198E+00   -5.2930055626E+00   -5.2830187459E+00   -5.2730695574E+00
   -5.2631577849E+00   -5.2532832160E+00   -5.2434456110E+00   -5.2336447504E+00
   -5.2238804704E+00   -5.2141525687E+00   -5.2044608430E+00   -5.1948050909E+00
   -5.1851851092E+00   -5.1756006334E+00   -5.1660515335E+00   -5.1565376163E+00
   -5.1470586891E+00   -5.1376145589E+00   -5.1282050327E+00   -5.1188298840E+00
   -5.1094889283E+00   -5.1001820115E+00   -5.0909089494E+00   -5.0816695583E+00
   -5.0724636540E+00   -5.0632910528E+00   -5.0541515113E+00   -5.0450449113E+00
   -5.0359710793E+00   -5.0269298397E+00   -5.0179210172E+00   -5.0089444364E+00
   -4.9999999015E+00   -4.9910872203E+00   -4.9822062655E+00   -4.9733568698E+00
   -4.9645388659E+00   -4.9557520868E+00   -4.9469963652E+00   -4.9382714973E+00
   -4.9295773347E+00   -4.9209137405E+00   -4.9122805552E+00   -4.9036776194E+00
   -4.8951047736E+00   -4.8865618585E+00   -4.8780486675E+00   -4.8695650841E+00
   -4.8611109665E+00   -4.8526861628E+00   -4.8442905208E+00   -4.8359238886E+00
   -4.8275861143E+00   -4.8192769932E+00   -4.8109964295E+00   -4.8027442812E+00
   -4.7945204036E+00   -4.7863246516E+00   -4.7781568803E+00   -4.7700169449E+00
   -4.7619046471E+00   -4.7538199010E+00   -4.7457625692E+00   -4.7377325137E+00
   -4.7297295963E+00   -4.7217536787E+00   -4.7138046230E+00   -4.7058822408E+00
   -4.6979864470E+00   -4.6901171127E+00   -4.6822741064E+00   -4.6744572962E+00
   -4.6666665506E+00   -4.6589017377E+00
  </PP_LOCAL>
 <PP_NONLOCAL>
   <PP_BETA.1
       type="real"
       size=" 602"
       columns="4"
       index="1"
       angular_momentum="0"
       cutoff_radius_index=" 364"
       cutoff_radius="    3.6300000000E+00" >
    0.0000000000E+00   -2.8784694756E-02   -5.7518606030E-02   -8.6151048537E-02
   -1.1463153320E-01   -1.4290986478E-01   -1.7093623895E-01   -1.9866133857E-01
   -2.2603642910E-01   -2.5301345282E-01   -2.7954512178E-01   -3.0558500922E-01
   -3.3108763941E-01   -3.5600857559E-01   -3.8030450588E-01   -4.0393332711E-01
   -4.2685422627E-01   -4.4902775939E-01   -4.7041592794E-01   -4.9098225229E-01
   -5.1069184236E-01   -5.2951146507E-01   -5.4740960870E-01   -5.6435654388E-01
   -5.8032438120E-01   -5.9528712495E-01   -6.0922072396E-01   -6.2210311771E-01
   -6.3391427924E-01   -6.4463625400E-01   -6.5425319465E-01   -6.6275139181E-01
   -6.7011930065E-01   -6.7634756302E-01   -6.8142902635E-01   -6.8535875676E-01
   -6.8813404950E-01   -6.8975443328E-01   -6.9022167254E-01   -6.8953976318E-01
   -6.8771492525E-01   -6.8475559107E-01   -6.8067238901E-01   -6.7547812308E-01
   -6.6918774823E-01   -6.6181834159E-01   -6.5338906951E-01   -6.4392115059E-01
   -6.3343781471E-01   -6.2196425901E-01   -6.0952759811E-01   -5.9615681143E-01
   -5.8188269004E-01   -5.6673777460E-01   -5.5075629081E-01   -5.3397409300E-01
   -5.1642857664E-01   -4.9815863170E-01   -4.7920453650E-01   -4.5960791575E-01