<UPF version="2.0.1">
  <PP_INFO>

 S_ONCV_PBE-1.0.upf

 This pseudopotential file has been produced using the code
 ONCVPSP  (Optimized Norm-Conservinng Vanderbilt PSeudopotential)
 scalar-relativistic version 2.1.1, 03/26/2014 by D. R. Hamann
 The code is available through a link at URL www.mat-simresearch.com.
 Documentation with the package provides a full discription of the
 input data below.


 While it is not required under the terms of the GNU GPL, it is
 suggested that you cite D. R. Hamann, Phys. Rev. B 88, 085117 (2013)
 in any publication using these pseudopotentials.


 Copyright 2015 The Regents of the University of California
 
 This work is licensed under the Creative Commons Attribution-ShareAlike 
 4.0 International License. To view a copy of this license, visit 
 http://creativecommons.org/licenses/by-sa/4.0/ or send a letter to 
 Creative Commons, PO Box 1866, Mountain View, CA 94042, USA.
 
 This pseudopotential is part of the Schlipf-Gygi norm-conserving 
 pseudopotential library. Its construction parameters were tuned to 
 reproduce materials of a training set with very high accuracy and 
 should be suitable as a general purpose pseudopotential to treat a 
 variety of different compounds. For details of the construction and 
 testing of the pseudopotential please refer to:
 
 [insert reference to paper here]
 
 We kindly ask that you include this reference in all publications 
 associated to this pseudopotential.


    <PP_INPUTFILE>
# ATOM AND REFERENCE CONFIGURATION
# atsym  z    nc    nv    iexc   psfile
  S 16.00     3     2     4      upf
#
#   n    l    f        energy (Ha)
    1    0    2.00
    2    0    2.00
    2    1    6.00
    3    0    2.00
    3    1    4.00
#
# PSEUDOPOTENTIAL AND OPTIMIZATION
# lmax
    1
#
#   l,   rc,     ep,   ncon, nbas, qcut
    0   2.76847  -0.63416    5    8   6.15953
    1   1.80194  -0.25757    5    8   8.33071
#
# LOCAL POTENTIAL
# lloc, lpopt,  rc(5),   dvloc0
    4    5   0.88087      0.00000
#
# VANDERBILT-KLEINMAN-BYLANDER PROJECTORs
# l, nproj, debl
    0    2   1.24422
    1    2   1.56790
#
# MODEL CORE CHARGE
# icmod, fcfact
    0   0.00000
#
# LOG DERIVATIVE ANALYSIS
# epsh1, epsh2, depsh
   -5.00    3.00    0.02
#
# OUTPUT GRID
# rlmax, drl
    6.00    0.01
#
# TEST CONFIGURATIONS
# ncnf
    0
# nvcnf
#   n    l    f
    </PP_INPUTFILE>
  </PP_INFO>
  <!--                               -->
  <!-- END OF HUMAN READABLE SECTION -->
  <!--                               -->
    <PP_HEADER
       generated="Generated using ONCVPSP code by D. R. Hamann"
       author="Martin Schlipf and Francois Gygi"
       date="150105"
       comment=""
       element="S "
       pseudo_type="NC"
       relativistic="scalar"
       is_ultrasoft="F"
       is_paw="F"
       is_coulomb="F"
       has_so="F"
       has_wfc="F"
       has_gipaw="F"
       core_correction="F"
       functional="PBE"
       z_valence="    6.00"
       total_psenergy="  -1.00940812488E+01"
       rho_cutoff="   6.01000000000E+00"
       l_max="1"
       l_local="-1"
       mesh_size="   602"
       number_of_wfc="0"
       number_of_proj="4"/>
 <PP_MESH>
   <PP_R type="real"  size=" 602" columns="8">
    0.0000    0.0100    0.0200    0.0300    0.0400    0.0500    0.0600    0.0700
    0.0800    0.0900    0.1000    0.1100    0.1200    0.1300    0.1400    0.1500
    0.1600    0.1700    0.1800    0.1900    0.2000    0.2100    0.2200    0.2300
    0.2400    0.2500    0.2600    0.2700    0.2800    0.2900    0.3000    0.3100
    0.3200    0.3300    0.3400    0.3500    0.3600    0.3700    0.3800    0.3900
    0.4000    0.4100    0.4200    0.4300    0.4400    0.4500    0.4600    0.4700
    0.4800    0.4900    0.5000    0.5100    0.5200    0.5300    0.5400    0.5500
    0.5600    0.5700    0.5800    0.5900    0.6000    0.6100    0.6200    0.6300
    0.6400    0.6500    0.6600    0.6700    0.6800    0.6900    0.7000    0.7100
    0.7200    0.7300    0.7400    0.7500    0.7600    0.7700    0.7800    0.7900
    0.8000    0.8100    0.8200    0.8300    0.8400    0.8500    0.8600    0.8700
    0.8800    0.8900    0.9000    0.9100    0.9200    0.9300    0.9400    0.9500
    0.9600    0.9700    0.9800    0.9900    1.0000    1.0100    1.0200    1.0300
    1.0400    1.0500    1.0600    1.0700    1.0800    1.0900    1.1000    1.1100
    1.1200    1.1300    1.1400    1.1500    1.1600    1.1700    1.1800    1.1900
    1.2000    1.2100    1.2200    1.2300    1.2400    1.2500    1.2600    1.2700
    1.2800    1.2900    1.3000    1.3100    1.3200    1.3300    1.3400    1.3500
    1.3600    1.3700    1.3800    1.3900    1.4000    1.4100    1.4200    1.4300
    1.4400    1.4500    1.4600    1.4700    1.4800    1.4900    1.5000    1.5100
    1.5200    1.5300    1.5400    1.5500    1.5600    1.5700    1.5800    1.5900
    1.6000    1.6100    1.6200    1.6300    1.6400    1.6500    1.6600    1.6700
    1.6800    1.6900    1.7000    1.7100    1.7200    1.7300    1.7400    1.7500
    1.7600    1.7700    1.7800    1.7900    1.8000    1.8100    1.8200    1.8300
    1.8400    1.8500    1.8600    1.8700    1.8800    1.8900    1.9000    1.9100
    1.9200    1.9300    1.9400    1.9500    1.9600    1.9700    1.9800    1.9900
    2.0000    2.0100    2.0200    2.0300    2.0400    2.0500    2.0600    2.0700
    2.0800    2.0900    2.1000    2.1100    2.1200    2.1300    2.1400    2.1500
    2.1600    2.1700    2.1800    2.1900    2.2000    2.2100    2.2200    2.2300
    2.2400    2.2500    2.2600    2.2700    2.2800    2.2900    2.3000    2.3100
    2.3200    2.3300    2.3400    2.3500    2.3600    2.3700    2.3800    2.3900
    2.4000    2.4100    2.4200    2.4300    2.4400    2.4500    2.4600    2.4700
    2.4800    2.4900    2.5000    2.5100    2.5200    2.5300    2.5400    2.5500
    2.5600    2.5700    2.5800    2.5900    2.6000    2.6100    2.6200    2.6300
    2.6400    2.6500    2.6600    2.6700    2.6800    2.6900    2.7000    2.7100
    2.7200    2.7300    2.7400    2.7500    2.7600    2.7700    2.7800    2.7900
    2.8000    2.8100    2.8200    2.8300    2.8400    2.8500    2.8600    2.8700
    2.8800    2.8900    2.9000    2.9100    2.9200    2.9300    2.9400    2.9500
    2.9600    2.9700    2.9800    2.9900    3.0000    3.0100    3.0200    3.0300
    3.0400    3.0500    3.0600    3.0700    3.0800    3.0900    3.1000    3.1100
    3.1200    3.1300    3.1400    3.1500    3.1600    3.1700    3.1800    3.1900
    3.2000    3.2100    3.2200    3.2300    3.2400    3.2500    3.2600    3.2700
    3.2800    3.2900    3.3000    3.3100    3.3200    3.3300    3.3400    3.3500
    3.3600    3.3700    3.3800    3.3900    3.4000    3.4100    3.4200    3.4300
    3.4400    3.4500    3.4600    3.4700    3.4800    3.4900    3.5000    3.5100
    3.5200    3.5300    3.5400    3.5500    3.5600    3.5700    3.5800    3.5900
    3.6000    3.6100    3.6200    3.6300    3.6400    3.6500    3.6600    3.6700
    3.6800    3.6900    3.7000    3.7100    3.7200    3.7300    3.7400    3.7500
    3.7600    3.7700    3.7800    3.7900    3.8000    3.8100    3.8200    3.8300
    3.8400    3.8500    3.8600    3.8700    3.8800    3.8900    3.9000    3.9100
    3.9200    3.9300    3.9400    3.9500    3.9600    3.9700    3.9800    3.9900
    4.0000    4.0100    4.0200    4.0300    4.0400    4.0500    4.0600    4.0700
    4.0800    4.0900    4.1000    4.1100    4.1200    4.1300    4.1400    4.1500
    4.1600    4.1700    4.1800    4.1900    4.2000    4.2100    4.2200    4.2300
    4.2400    4.2500    4.2600    4.2700    4.2800    4.2900    4.3000    4.3100
    4.3200    4.3300    4.3400    4.3500    4.3600    4.3700    4.3800    4.3900
    4.4000    4.4100    4.4200    4.4300    4.4400    4.4500    4.4600    4.4700
    4.4800    4.4900    4.5000    4.5100    4.5200    4.5300    4.5400    4.5500
    4.5600    4.5700    4.5800    4.5900    4.6000    4.6100    4.6200    4.6300
    4.6400    4.6500    4.6600    4.6700    4.6800    4.6900    4.7000    4.7100
    4.7200    4.7300    4.7400    4.7500    4.7600    4.7700    4.7800    4.7900
    4.8000    4.8100    4.8200    4.8300    4.8400    4.8500    4.8600    4.8700
    4.8800    4.8900    4.9000    4.9100    4.9200    4.9300    4.9400    4.9500
    4.9600    4.9700    4.9800    4.9900    5.0000    5.0100    5.0200    5.0300
    5.0400    5.0500    5.0600    5.0700    5.0800    5.0900    5.1000    5.1100
    5.1200    5.1300    5.1400    5.1500    5.1600    5.1700    5.1800    5.1900
    5.2000    5.2100    5.2200    5.2300    5.2400    5.2500    5.2600    5.2700
    5.2800    5.2900    5.3000    5.3100    5.3200    5.3300    5.3400    5.3500
    5.3600    5.3700    5.3800    5.3900    5.4000    5.4100    5.4200    5.4300
    5.4400    5.4500    5.4600    5.4700    5.4800    5.4900    5.5000    5.5100
    5.5200    5.5300    5.5400    5.5500    5.5600    5.5700    5.5800    5.5900
    5.6000    5.6100    5.6200    5.6300    5.6400    5.6500    5.6600    5.6700
    5.6800    5.6900    5.7000    5.7100    5.7200    5.7300    5.7400    5.7500
    5.7600    5.7700    5.7800    5.7900    5.8000    5.8100    5.8200    5.8300
    5.8400    5.8500    5.8600    5.8700    5.8800    5.8900    5.9000    5.9100
    5.9200    5.9300    5.9400    5.9500    5.9600    5.9700    5.9800    5.9900
    6.0000    6.0100
   </PP_R>
   <PP_RAB type="real"  size=" 602" columns="8">
    0.0100    0.0100    0.0100    0.0100    0.0100    0.0100    0.0100    0.0100
    0.0100    0.0100    0.0100    0.0100    0.0100    0.0100    0.0100    0.0100
    0.0100    0.0100    0.0100    0.0100    0.0100    0.0100    0.0100    0.0100
    0.0100    0.0100    0.0100    0.0100    0.0100    0.0100    0.0100    0.0100
    0.0100    0.0100    0.0100    0.0100    0.0100    0.0100    0.0100    0.0100
    0.0100    0.0100    0.0100    0.0100    0.0100    0.0100    0.0100    0.0100
    0.0100    0.0100    0.0100    0.0100    0.0100    0.0100    0.0100    0.0100
    0.0100    0.0100    0.0100    0.0100    0.0100    0.0100    0.0100    0.0100
    0.0100    0.0100    0.0100    0.0100    0.0100    0.0100    0.0100    0.0100
    0.0100    0.0100    0.0100    0.0100    0.0100    0.0100    0.0100    0.0100
    0.0100    0.0100    0.0100    0.0100    0.0100    0.0100    0.0100    0.0100
    0.0100    0.0100    0.0100    0.0100    0.0100    0.0100    0.0100    0.0100
    0.0100    0.0100    0.0100    0.0100    0.0100    0.0100    0.0100    0.0100
    0.0100    0.0100    0.0100    0.0100    0.0100    0.0100    0.0100    0.0100
    0.0100    0.0100    0.0100    0.0100    0.0100    0.0100    0.0100    0.0100
    0.0100    0.0100    0.0100    0.0100    0.0100    0.0100    0.0100    0.0100
    0.0100    0.0100    0.0100    0.0100    0.0100    0.0100    0.0100    0.0100
    0.0100    0.0100    0.0100    0.0100    0.0100    0.0100    0.0100    0.0100
    0.0100    0.0100    0.0100    0.0100    0.0100    0.0100    0.0100    0.0100
    0.0100    0.0100    0.0100    0.0100    0.0100    0.0100    0.0100    0.0100
    0.0100    0.0100    0.0100    0.0100    0.0100    0.0100    0.0100    0.0100
    0.0100    0.0100    0.0100    0.0100    0.0100    0.0100    0.0100    0.0100
    0.0100    0.0100    0.0100    0.0100    0.0100    0.0100    0.0100    0.0100
    0.0100    0.0100    0.0100    0.0100    0.0100    0.0100    0.0100    0.0100
    0.0100    0.0100    0.0100    0.0100    0.0100    0.0100    0.0100    0.0100
    0.0100    0.0100    0.0100    0.0100    0.0100    0.0100    0.0100    0.0100
    0.0100    0.0100    0.0100    0.0100    0.0100    0.0100    0.0100    0.0100
    0.0100    0.0100    0.0100    0.0100    0.0100    0.0100    0.0100    0.0100
    0.0100    0.0100    0.0100    0.0100    0.0100    0.0100    0.0100    0.0100
    0.0100    0.0100    0.0100    0.0100    0.0100    0.0100    0.0100    0.0100
    0.0100    0.0100    0.0100    0.0100    0.0100    0.0100    0.0100    0.0100
    0.0100    0.0100    0.0100    0.0100    0.0100    0.0100    0.0100    0.0100
    0.0100    0.0100    0.0100    0.0100    0.0100    0.0100    0.0100    0.0100
    0.0100    0.0100    0.0100    0.0100    0.0100    0.0100    0.0100    0.0100
    0.0100    0.0100    0.0100    0.0100    0.0100    0.0100    0.0100    0.0100
    0.0100    0.0100    0.0100    0.0100    0.0100    0.0100    0.0100    0.0100
    0.0100    0.0100    0.0100    0.0100    0.0100    0.0100    0.0100    0.0100
    0.0100    0.0100    0.0100    0.0100    0.0100    0.0100    0.0100    0.0100
    0.0100    0.0100    0.0100    0.0100    0.0100    0.0100    0.0100    0.0100
    0.0100    0.0100    0.0100    0.0100    0.0100    0.0100    0.0100    0.0100
    0.0100    0.0100    0.0100    0.0100    0.0100    0.0100    0.0100    0.0100
    0.0100    0.0100    0.0100    0.0100    0.0100    0.0100    0.0100    0.0100
    0.0100    0.0100    0.0100    0.0100    0.0100    0.0100    0.0100    0.0100
    0.0100    0.0100    0.0100    0.0100    0.0100    0.0100    0.0100    0.0100
    0.0100    0.0100    0.0100    0.0100    0.0100    0.0100    0.0100    0.0100
    0.0100    0.0100    0.0100    0.0100    0.0100    0.0100    0.0100    0.0100
    0.0100    0.0100    0.0100    0.0100    0.0100    0.0100    0.0100    0.0100
    0.0100    0.0100    0.0100    0.0100    0.0100    0.0100    0.0100    0.0100
    0.0100    0.0100    0.0100    0.0100    0.0100    0.0100    0.0100    0.0100
    0.0100    0.0100    0.0100    0.0100    0.0100    0.0100    0.0100    0.0100
    0.0100    0.0100    0.0100    0.0100    0.0100    0.0100    0.0100    0.0100
    0.0100    0.0100    0.0100    0.0100    0.0100    0.0100    0.0100    0.0100
    0.0100    0.0100    0.0100    0.0100    0.0100    0.0100    0.0100    0.0100
    0.0100    0.0100    0.0100    0.0100    0.0100    0.0100    0.0100    0.0100
    0.0100    0.0100    0.0100    0.0100    0.0100    0.0100    0.0100    0.0100
    0.0100    0.0100    0.0100    0.0100    0.0100    0.0100    0.0100    0.0100
    0.0100    0.0100    0.0100    0.0100    0.0100    0.0100    0.0100    0.0100
    0.0100    0.0100    0.0100    0.0100    0.0100    0.0100    0.0100    0.0100
    0.0100    0.0100    0.0100    0.0100    0.0100    0.0100    0.0100    0.0100
    0.0100    0.0100    0.0100    0.0100    0.0100    0.0100    0.0100    0.0100
    0.0100    0.0100    0.0100    0.0100    0.0100    0.0100    0.0100    0.0100
    0.0100    0.0100    0.0100    0.0100    0.0100    0.0100    0.0100    0.0100
    0.0100    0.0100    0.0100    0.0100    0.0100    0.0100    0.0100    0.0100
    0.0100    0.0100    0.0100    0.0100    0.0100    0.0100    0.0100    0.0100
    0.0100    0.0100    0.0100    0.0100    0.0100    0.0100    0.0100    0.0100
    0.0100    0.0100    0.0100    0.0100    0.0100    0.0100    0.0100    0.0100
    0.0100    0.0100    0.0100    0.0100    0.0100    0.0100    0.0100    0.0100
    0.0100    0.0100    0.0100    0.0100    0.0100    0.0100    0.0100    0.0100
    0.0100    0.0100    0.0100    0.0100    0.0100    0.0100    0.0100    0.0100
    0.0100    0.0100    0.0100    0.0100    0.0100    0.0100    0.0100    0.0100
    0.0100    0.0100    0.0100    0.0100    0.0100    0.0100    0.0100    0.0100
    0.0100    0.0100    0.0100    0.0100    0.0100    0.0100    0.0100    0.0100
    0.0100    0.0100    0.0100    0.0100    0.0100    0.0100    0.0100    0.0100
    0.0100    0.0100    0.0100    0.0100    0.0100    0.0100    0.0100    0.0100
    0.0100    0.0100    0.0100    0.0100    0.0100    0.0100    0.0100    0.0100
    0.0100    0.0100
   </PP_RAB>
 </PP_MESH>
  <PP_LOCAL type="real"  size=" 602" columns="4">
   -2.9222304993E+01   -2.9226877138E+01   -2.9243051819E+01   -2.9267399479E+01
   -2.9296490558E+01   -2.9326351449E+01   -2.9353019192E+01   -2.9372987464E+01
   -2.9383486221E+01   -2.9382591767E+01   -2.9369200727E+01   -2.9342916044E+01
   -2.9303890958E+01   -2.9252666061E+01   -2.9190021673E+01   -2.9116856639E+01
   -2.9034096822E+01   -2.8942631608E+01   -2.8843274218E+01   -2.8736740804E+01
   -2.8623643278E+01   -2.8504491567E+01   -2.8379701666E+01   -2.8249606840E+01
   -2.8114470050E+01   -2.7974496345E+01   -2.7829844312E+01   -2.7680636403E+01
   -2.7526967743E+01   -2.7368913559E+01   -2.7206535276E+01   -2.7039885447E+01
   -2.6869011662E+01   -2.6693959610E+01   -2.6514775438E+01   -2.6331507535E+01
   -2.6144207880E+01   -2.5952932981E+01   -2.5757744596E+01   -2.5558710158E+01
   -2.5355903068E+01   -2.5149402832E+01   -2.4939295113E+01   -2.4725671681E+01
   -2.4508630326E+01   -2.4288274709E+01   -2.4064714199E+01   -2.3838063677E+01
   -2.3608443345E+01   -2.3375978500E+01   -2.3140799378E+01   -2.2903040949E+01
   -2.2662842702E+01   -2.2420348529E+01   -2.2175706588E+01   -2.1929069078E+01
   -2.1680592312E+01   -2.1430436404E+01   -2.1178765444E+01   -2.0925747195E+01
   -2.0671553318E+01   -2.0416359136E+01   -2.0160343763E+01   -1.9903690117E+01
   -1.9646584820E+01   -1.9389218406E+01   -1.9131785280E+01   -1.8874483728E+01
   -1.8617516007E+01   -1.8361088527E+01   -1.8105411779E+01   -1.7850700468E+01
   -1.7597173570E+01   -1.7345054526E+01   -1.7094571336E+01   -1.6845956628E+01
   -1.6599447840E+01   -1.6355287377E+01   -1.6113722800E+01   -1.5875007029E+01
   -1.5639398581E+01   -1.5407161819E+01   -1.5178567247E+01   -1.4953891799E+01
   -1.4733419245E+01   -1.4517440501E+01   -1.4306254028E+01   -1.4100166265E+01
   -1.3899492078E+01   -1.3704555284E+01   -1.3515716549E+01   -1.3333373931E+01
   -1.3157921719E+01   -1.2989698547E+01   -1.2828937210E+01   -1.2675722997E+01
   -1.2529966266E+01   -1.2391393188E+01   -1.2259557699E+01   -1.2133862780E+01
   -1.2013605721E+01   -1.1898036928E+01   -1.1786407455E+01   -1.1678013559E+01
   -1.1572227422E+01   -1.1468525116E+01   -1.1366503564E+01   -1.1265862073E+01
   -1.1166395489E+01   -1.1067976488E+01   -1.0970549284E+01   -1.0874101931E+01
   -1.0778650348E+01   -1.0684229327E+01   -1.0590884502E+01   -1.0498662066E+01
   -1.0407605357E+01   -1.0317753864E+01   -1.0229138666E+01   -1.0141783335E+01
   -1.0055705187E+01   -9.9709146853E+00   -9.8874143698E+00   -9.8052026375E+00
   -9.7242738640E+00   -9.6446164429E+00   -9.5662167710E+00   -9.4890590077E+00
   -9.4131239231E+00   -9.3383915016E+00   -9.2648405830E+00   -9.1924485935E+00
   -9.1211928340E+00   -9.0510501069E+00   -8.9819971109E+00   -8.9140105939E+00
   -8.8470674329E+00   -8.7811449311E+00   -8.7162204366E+00   -8.6522721116E+00
   -8.5892783302E+00   -8.5272179546E+00   -8.4660706558E+00   -8.4058161156E+00
   -8.3464351702E+00   -8.2879087400E+00   -8.2302184512E+00   -8.1733465742E+00
   -8.1172755020E+00   -8.0619887291E+00   -8.0074695684E+00   -7.9537024316E+00
   -7.9006717213E+00   -7.8483625465E+00   -7.7967603730E+00   -7.7458509691E+00
   -7.6956207672E+00   -7.6460561676E+00   -7.5971444679E+00   -7.5488726762E+00
   -7.5012288337E+00   -7.4542006030E+00   -7.4077766039E+00   -7.3619451547E+00
   -7.3166953764E+00   -7.2720161824E+00   -7.2278971608E+00   -7.1843277489E+00
   -7.1412979700E+00   -7.0987977192E+00   -7.0568174239E+00   -7.0153473768E+00
   -6.9743783796E+00   -6.9339010695E+00   -6.8939065938E+00   -6.8543858882E+00
   -6.8153304181E+00   -6.7767313742E+00   -6.7385805177E+00   -6.7008692507E+00
   -6.6635896984E+00   -6.6267335415E+00   -6.5902933937E+00   -6.5542616058E+00
   -6.5186311211E+00   -6.4833950219E+00   -6.4485464452E+00   -6.4140787366E+00
   -6.3799851555E+00   -6.3462595102E+00   -6.3128952141E+00   -6.2798864175E+00
   -6.2472268902E+00   -6.2149108880E+00   -6.1829326076E+00   -6.1512863815E+00
   -6.1199668423E+00   -6.0889683816E+00   -6.0582859958E+00   -6.0279143174E+00
   -5.9978484675E+00   -5.9680834864E+00   -5.9386144963E+00   -5.9094369733E+00
   -5.8805460505E+00   -5.8519374988E+00   -5.8236067840E+00   -5.7955496348E+00
   -5.7677619636E+00   -5.7402394403E+00   -5.7129783048E+00   -5.6859744835E+00
   -5.6592241877E+00   -5.6327237723E+00   -5.6064693500E+00   -5.5804575837E+00
   -5.5546848493E+00   -5.5291477254E+00   -5.5038429963E+00   -5.4787671717E+00
   -5.4539172515E+00   -5.4292900607E+00   -5.4048824434E+00   -5.3806915749E+00
   -5.3567143783E+00   -5.3329480538E+00   -5.3093898768E+00   -5.2860368970E+00
   -5.2628866226E+00   -5.2399363770E+00   -5.2171834804E+00   -5.1946255614E+00
   -5.1722600424E+00   -5.1500844996E+00   -5.1280966521E+00   -5.1062940297E+00
   -5.0846744272E+00   -5.0632356489E+00   -5.0419753322E+00   -5.0208914543E+00
   -4.9999818910E+00   -4.9792444184E+00   -4.9586771308E+00   -4.9382779804E+00
   -4.9180448913E+00   -4.8979760337E+00   -4.8780694455E+00   -4.8583231745E+00
   -4.8387354627E+00   -4.8193044307E+00   -4.8000282284E+00   -4.7809051664E+00
   -4.7619334448E+00   -4.7431112965E+00   -4.7244370988E+00   -4.7059091282E+00
   -4.6875256846E+00   -4.6692852101E+00   -4.6511860551E+00   -4.6332265725E+00
   -4.6154052688E+00   -4.5977205661E+00   -4.5801708588E+00   -4.5627547176E+00
   -4.5454706361E+00   -4.5283170391E+00   -4.5112925630E+00   -4.4943957631E+00
   -4.4776251171E+00   -4.4609792964E+00   -4.4444569233E+00   -4.4280565454E+00
   -4.4117768450E+00   -4.3956165211E+00   -4.3795741952E+00   -4.3636485484E+00
   -4.3478383701E+00   -4.3321423704E+00   -4.3165592081E+00   -4.3010877823E+00
   -4.2857268923E+00   -4.2704752466E+00   -4.2553317666E+00   -4.2402953332E+00
   -4.2253647634E+00   -4.2105389364E+00   -4.1958168140E+00   -4.1811973014E+00
   -4.1666792338E+00   -4.1522616610E+00   -4.1379435462E+00   -4.1237237946E+00
   -4.1096014215E+00   -4.0955754742E+00   -4.0816449512E+00   -4.0678088069E+00
   -4.0540661750E+00   -4.0404161129E+00   -4.0268576233E+00   -4.0133898099E+00
   -4.0000118090E+00   -3.9867227183E+00   -3.9735215648E+00   -3.9604075713E+00
   -3.9473798810E+00   -3.9344375997E+00   -3.9215798763E+00   -3.9088059425E+00
   -3.8961149813E+00   -3.8835061122E+00   -3.8709785920E+00   -3.8585316609E+00
   -3.8461645335E+00   -3.8338763678E+00   -3.8216664933E+00   -3.8095341675E+00
   -3.7974786205E+00   -3.7854990956E+00   -3.7735949373E+00   -3.7617654378E+00
   -3.7500098459E+00   -3.7383274788E+00   -3.7267176969E+00   -3.7151798252E+00
   -3.7037131348E+00   -3.6923170045E+00   -3.6809908128E+00   -3.6697339160E+00
   -3.6585456100E+00   -3.6474253238E+00   -3.6363724565E+00   -3.6253863944E+00
   -3.6144664598E+00   -3.6036121221E+00   -3.5928228029E+00   -3.5820979173E+00
   -3.5714368158E+00   -3.5608389983E+00   -3.5503039117E+00   -3.5398309981E+00
   -3.5294196382E+00   -3.5190693532E+00   -3.5087796173E+00   -3.4985498988E+00
   -3.4883796097E+00   -3.4782682844E+00   -3.4682154264E+00   -3.4582205288E+00
   -3.4482830368E+00   -3.4384024897E+00   -3.4285784225E+00   -3.4188103516E+00
   -3.4090977573E+00   -3.3994401764E+00   -3.3898371765E+00   -3.3802882968E+00
   -3.3707930544E+00   -3.3613509764E+00   -3.3519616644E+00   -3.3426246791E+00
   -3.3333395764E+00   -3.3241058675E+00   -3.3149231888E+00   -3.3057911215E+00
   -3.2967092465E+00   -3.2876770998E+00   -3.2786943072E+00   -3.2697604842E+00
   -3.2608752313E+00   -3.2520381262E+00   -3.2432487634E+00   -3.2345067979E+00
   -3.2258118492E+00   -3.2171635362E+00   -3.2085614245E+00   -3.2000052016E+00
   -3.1914945067E+00   -3.1830289767E+00   -3.1746082211E+00   -3.1662318833E+00
   -3.1578996462E+00   -3.1496111635E+00   -3.1413660891E+00   -3.1331640259E+00
   -3.1250046913E+00   -3.1168877580E+00   -3.1088128959E+00   -3.1007797548E+00
   -3.0927879967E+00   -3.0848373407E+00   -3.0769274719E+00   -3.0690580759E+00
   -3.0612287998E+00   -3.0534393635E+00   -3.0456894811E+00   -3.0379788526E+00
   -3.0303071762E+00   -3.0226741062E+00   -3.0150794044E+00   -3.0075227849E+00
   -3.0000039617E+00   -2.9925226343E+00   -2.9850784994E+00   -2.9776713196E+00
   -2.9703008222E+00   -2.9629667347E+00   -2.9556687608E+00   -2.9484066317E+00
   -2.9411801128E+00   -2.9339889443E+00   -2.9268328661E+00   -2.9197115892E+00
   -2.9126248712E+00   -2.9055724829E+00   -2.8985541765E+00   -2.8915697041E+00
   -2.8846187861E+00   -2.8777011993E+00   -2.8708167221E+00   -2.8639651183E+00
   -2.8571461516E+00   -2.8503595539E+00   -2.8436051145E+00   -2.8368826217E+00
   -2.8301918503E+00   -2.8235325750E+00   -2.8169045412E+00   -2.8103075443E+00
   -2.8037413848E+00   -2.7972058479E+00   -2.7907007188E+00   -2.7842257585E+00
   -2.7777807622E+00   -2.7713655448E+00   -2.7649799012E+00   -2.7586236268E+00
   -2.7522965001E+00   -2.7459983106E+00   -2.7397288890E+00   -2.7334880399E+00
   -2.7272755681E+00   -2.7210912717E+00   -2.7149349291E+00   -2.7088063885E+00
   -2.7027054636E+00   -2.6966319684E+00   -2.6905857167E+00   -2.6845664875E+00
   -2.6785741316E+00   -2.6726084767E+00   -2.6666693455E+00   -2.6607565603E+00
   -2.6548699233E+00   -2.6490092624E+00   -2.6431744275E+00   -2.6373652495E+00
   -2.6315815591E+00   -2.6258231832E+00   -2.6200899230E+00   -2.6143816514E+00
   -2.6086982069E+00   -2.6030394282E+00   -2.5974051540E+00   -2.5917951998E+00
   -2.5862094174E+00   -2.5806476675E+00   -2.5751097964E+00   -2.5695956501E+00
   -2.5641050724E+00   -2.5586378787E+00   -2.5531939559E+00   -2.5477731575E+00
   -2.5423753368E+00   -2.5370003472E+00   -2.5316480256E+00   -2.5263182250E+00
   -2.5210108253E+00   -2.5157256867E+00   -2.5104626694E+00   -2.5052216336E+00
   -2.5000024125E+00   -2.4948048901E+00   -2.4896289411E+00   -2.4844744322E+00
   -2.4793412301E+00   -2.4742292009E+00   -2.4691381790E+00   -2.4640680703E+00
   -2.4590187476E+00   -2.4539900839E+00   -2.4489819521E+00   -2.4439942183E+00
   -2.4390267368E+00   -2.4340794129E+00   -2.4291521255E+00   -2.4242447533E+00
   -2.4193571753E+00   -2.4144892600E+00   -2.4096408756E+00   -2.4048119292E+00
   -2.4000023051E+00   -2.3952118879E+00   -2.3904405621E+00   -2.3856882008E+00
   -2.3809546809E+00   -2.3762399130E+00   -2.3715437868E+00   -2.3668661923E+00
   -2.3622070194E+00   -2.3575661478E+00   -2.3529434579E+00   -2.3483388657E+00
   -2.3437522663E+00   -2.3391835547E+00   -2.3346326259E+00   -2.3300993682E+00
   -2.3255836605E+00   -2.3210854263E+00   -2.3166045657E+00   -2.3121409784E+00
   -2.3076945643E+00   -2.3032652223E+00   -2.2988528252E+00   -2.2944573058E+00
   -2.2900785686E+00   -2.2857165181E+00   -2.2813710589E+00   -2.2770420956E+00
   -2.2727295100E+00   -2.2684332265E+00   -2.2641531604E+00   -2.2598892206E+00
   -2.2556413162E+00   -2.2514093561E+00   -2.2471932364E+00   -2.2429928655E+00
   -2.2388081720E+00   -2.2346390693E+00   -2.2304854705E+00   -2.2263472888E+00
   -2.2222244360E+00   -2.2181168013E+00   -2.2140243276E+00   -2.2099469323E+00
   -2.2058845326E+00   -2.2018370459E+00   -2.1978043894E+00   -2.1937864647E+00
   -2.1897831955E+00   -2.1857945143E+00   -2.1818203424E+00   -2.1778606007E+00
   -2.1739152105E+00   -2.1699840924E+00   -2.1660671426E+00   -2.1621643113E+00
   -2.1582755233E+00   -2.1544007035E+00   -2.1505397767E+00   -2.1466926677E+00
   -2.1428592913E+00   -2.1390395677E+00   -2.1352334412E+00   -2.1314408399E+00
   -2.1276616923E+00   -2.1238959266E+00   -2.1201434712E+00   -2.1164042376E+00
   -2.1126781646E+00   -2.1089651923E+00   -2.1052652523E+00   -2.1015782764E+00
   -2.0979041962E+00   -2.0942429432E+00   -2.0905944280E+00   -2.0869586029E+00
   -2.0833354060E+00   -2.0797247722E+00   -2.0761266362E+00   -2.0725409329E+00
   -2.0689675972E+00   -2.0654065402E+00   -2.0618577233E+00   -2.0583210844E+00
   -2.0547965615E+00   -2.0512840924E+00   -2.0477836150E+00   -2.0442950662E+00
   -2.0408183627E+00   -2.0373534673E+00   -2.0339003210E+00   -2.0304588644E+00
   -2.0270290384E+00   -2.0236107838E+00   -2.0202040412E+00   -2.0168087290E+00
   -2.0134248130E+00   -2.0100522367E+00   -2.0066909439E+00   -2.0033408779E+00
   -2.0000019824E+00   -1.9966742009E+00
  </PP_LOCAL>
 <PP_NONLOCAL>
   <PP_BETA.1
       type="real"
       size=" 602"
       columns="4"
       index="1"
       angular_momentum="0"
       cutoff_radius_index=" 280"
       cutoff_radius="    2.7900000000E+00" >
    0.0000000000E+00    4.3272189053E-02    8.6486377449E-02    1.2958469765E-01
    1.7250954797E-01    2.1520372449E-01    2.5761055176E-01    2.9967401196E-01
    3.4133887204E-01    3.8255080848E-01    4.2325652936E-01    4.6340389331E-01
    5.0294202496E-01    5.4182142667E-01    5.7999408602E-01    6.1741357896E-01
    6.5403516811E-01    6.8981589603E-01    7.2471467322E-01    7.5869236053E-01
    7.9171184576E-01    8.2373811416E-01    8.5473831284E-01    8.8468180878E-01
    9.1354024021E-01    9.4128756116E-01    9.6790007993E-01    9.9335648967E-01
    1.0176378928E+00    1.0407278183E+00    1.0626122319E+00    1.0832795393E+00
    1.1027205830E+00    1.1209286312E+00    1.1378993615E+00    1.1536308363E+00
    1.1681234733E+00    1.1813800085E+00    1.1934054534E+00    1.2042070471E+00
    1.2137942015E+00    1.2221784422E+00    1.2293733436E+00    1.2353944600E+00
    1.2402592509E+00    1.2439870040E+00    1.2465987534E+00    1.2481171944E+00
    1.2485665961E+00    1.2479727135E+00    1.2463626917E+00    1.2437649716E+00
    1.2402092027E+00    1.2357261409E+00    1.2303475501E+00    1.2241061275E+00
    1.2170353730E+00    1.2091695456E+00    1.2005435175E+00    1.1911927481E+00
    1.1811531353E+00    1.1704609902E+00    1.1591529286E+00    1.1472657968E+00
    1.1348366387E+00    1.1219025898E+00    1.1085008436E+00    1.0946686136E+00
    1.0804430849E+00    1.0658613537E+00    1.0509604367E+00    1.0357772413E+00
    1.0203485621E+00    1.0047110654E+00    9.8890130463E-01    9.7295574848E-01
    9.5691080469E-01    9.4080285934E-01    9.2466832644E-01    9.0854370828E-01
    8.9246566639E-01    8.7647110343E-01    8.6059725585E-01    8.4488179696E-01
    8.2936295294E-01    8.1407962732E-01    7.9907153562E-01    7.8437935162E-01
    7.7004486304E-01    7.5611115102E-01    7.4262636074E-01    7.2964395170E-01
    7.1721746204E-01    7.0539374969E-01    6.9420632549E-01    6.8366967217E-01
    6.7377532914E-01    6.6449030035E-01    6.5575818556E-01    6.4750172988E-01