<UPF version="2.0.1">
  <PP_INFO>

 This pseudopotential file has been produced using the code
 ONCVPSP  (Optimized Norm-Conservinng Vanderbilt PSeudopotential)
 scalar-relativistic version 2.1.1, 03/26/2014 by D. R. Hamann
 The code is available through a link at URL www.mat-simresearch.com.
 Documentation with the package provides a full discription of the
 input data below.


 While it is not required under the terms of the GNU GPL, it is
 suggested that you cite D. R. Hamann, Phys. Rev. B 88, 085117 (2013)
 in any publication using these pseudopotentials.


 Copyright 2015 The Regents of the University of California
 
 This work is licensed under the Creative Commons Attribution-ShareAlike 
 4.0 International License. To view a copy of this license, visit 
 http://creativecommons.org/licenses/by-sa/4.0/ or send a letter to 
 Creative Commons, PO Box 1866, Mountain View, CA 94042, USA.
 
 This pseudopotential is part of the Schlipf-Gygi norm-conserving 
 pseudopotential library. Its construction parameters were tuned to 
 reproduce materials of a training set with very high accuracy and 
 should be suitable as a general purpose pseudopotential to treat a 
 variety of different compounds. For details of the construction and 
 testing of the pseudopotential please refer to:
 
 [insert reference to paper here]
 
 We kindly ask that you include this reference in all publications 
 associated to this pseudopotential.


    <PP_INPUTFILE>
# ATOM AND REFERENCE CONFIGURATION
# atsym  z    nc    nv    iexc   psfile
  Sn 50.00     8     3     4      upf
#
#   n    l    f        energy (Ha)
    1    0    2.00
    2    0    2.00
    2    1    6.00
    3    0    2.00
    3    1    6.00
    3    2   10.00
    4    0    2.00
    4    1    6.00
    4    2   10.00
    5    0    2.00
    5    1    2.00
#
# PSEUDOPOTENTIAL AND OPTIMIZATION
# lmax
    2
#
#   l,   rc,     ep,   ncon, nbas, qcut
    0   2.95543  -0.38768    5    8   3.72712
    1   2.88576  -0.13576    5    8   3.84590
    2   2.53090  -0.94957    5    8   6.52180
#
# LOCAL POTENTIAL
# lloc, lpopt,  rc(5),   dvloc0
    4    5   1.60848      0.00000
#
# VANDERBILT-KLEINMAN-BYLANDER PROJECTORs
# l, nproj, debl
    0    2   0.74228
    1    2   0.77394
    2    2   1.47265
#
# MODEL CORE CHARGE
# icmod, fcfact
    0   0.00000
#
# LOG DERIVATIVE ANALYSIS
# epsh1, epsh2, depsh
   -5.00    3.00    0.02
#
# OUTPUT GRID
# rlmax, drl
    6.00    0.01
#
# TEST CONFIGURATIONS
# ncnf
    0
# nvcnf
#   n    l    f
    </PP_INPUTFILE>
  </PP_INFO>
  <!--                               -->
  <!-- END OF HUMAN READABLE SECTION -->
  <!--                               -->
    <PP_HEADER
       generated="Generated using ONCVPSP code by D. R. Hamann"
       author="Martin Schlipf and Francois Gygi"
       date="150105"
       comment=""
       element="Sn"
       pseudo_type="NC"
       relativistic="scalar"
       is_ultrasoft="F"
       is_paw="F"
       is_coulomb="F"
       has_so="F"
       has_wfc="F"
       has_gipaw="F"
       core_correction="F"
       functional="PBE"
       z_valence="   14.00"
       total_psenergy="  -6.39149981530E+01"
       rho_cutoff="   6.01000000000E+00"
       l_max="2"
       l_local="-1"
       mesh_size="   602"
       number_of_wfc="0"
       number_of_proj="6"/>
 <PP_MESH>
   <PP_R type="real"  size=" 602" columns="8">
    0.0000    0.0100    0.0200    0.0300    0.0400    0.0500    0.0600    0.0700
    0.0800    0.0900    0.1000    0.1100    0.1200    0.1300    0.1400    0.1500
    0.1600    0.1700    0.1800    0.1900    0.2000    0.2100    0.2200    0.2300
    0.2400    0.2500    0.2600    0.2700    0.2800    0.2900    0.3000    0.3100
    0.3200    0.3300    0.3400    0.3500    0.3600    0.3700    0.3800    0.3900
    0.4000    0.4100    0.4200    0.4300    0.4400    0.4500    0.4600    0.4700
    0.4800    0.4900    0.5000    0.5100    0.5200    0.5300    0.5400    0.5500
    0.5600    0.5700    0.5800    0.5900    0.6000    0.6100    0.6200    0.6300
    0.6400    0.6500    0.6600    0.6700    0.6800    0.6900    0.7000    0.7100
    0.7200    0.7300    0.7400    0.7500    0.7600    0.7700    0.7800    0.7900
    0.8000    0.8100    0.8200    0.8300    0.8400    0.8500    0.8600    0.8700
    0.8800    0.8900    0.9000    0.9100    0.9200    0.9300    0.9400    0.9500
    0.9600    0.9700    0.9800    0.9900    1.0000    1.0100    1.0200    1.0300
    1.0400    1.0500    1.0600    1.0700    1.0800    1.0900    1.1000    1.1100
    1.1200    1.1300    1.1400    1.1500    1.1600    1.1700    1.1800    1.1900
    1.2000    1.2100    1.2200    1.2300    1.2400    1.2500    1.2600    1.2700
    1.2800    1.2900    1.3000    1.3100    1.3200    1.3300    1.3400    1.3500
    1.3600    1.3700    1.3800    1.3900    1.4000    1.4100    1.4200    1.4300
    1.4400    1.4500    1.4600    1.4700    1.4800    1.4900    1.5000    1.5100
    1.5200    1.5300    1.5400    1.5500    1.5600    1.5700    1.5800    1.5900
    1.6000    1.6100    1.6200    1.6300    1.6400    1.6500    1.6600    1.6700
    1.6800    1.6900    1.7000    1.7100    1.7200    1.7300    1.7400    1.7500
    1.7600    1.7700    1.7800    1.7900    1.8000    1.8100    1.8200    1.8300
    1.8400    1.8500    1.8600    1.8700    1.8800    1.8900    1.9000    1.9100
    1.9200    1.9300    1.9400    1.9500    1.9600    1.9700    1.9800    1.9900
    2.0000    2.0100    2.0200    2.0300    2.0400    2.0500    2.0600    2.0700
    2.0800    2.0900    2.1000    2.1100    2.1200    2.1300    2.1400    2.1500
    2.1600    2.1700    2.1800    2.1900    2.2000    2.2100    2.2200    2.2300
    2.2400    2.2500    2.2600    2.2700    2.2800    2.2900    2.3000    2.3100
    2.3200    2.3300    2.3400    2.3500    2.3600    2.3700    2.3800    2.3900
    2.4000    2.4100    2.4200    2.4300    2.4400    2.4500    2.4600    2.4700
    2.4800    2.4900    2.5000    2.5100    2.5200    2.5300    2.5400    2.5500
    2.5600    2.5700    2.5800    2.5900    2.6000    2.6100    2.6200    2.6300
    2.6400    2.6500    2.6600    2.6700    2.6800    2.6900    2.7000    2.7100
    2.7200    2.7300    2.7400    2.7500    2.7600    2.7700    2.7800    2.7900
    2.8000    2.8100    2.8200    2.8300    2.8400    2.8500    2.8600    2.8700
    2.8800    2.8900    2.9000    2.9100    2.9200    2.9300    2.9400    2.9500
    2.9600    2.9700    2.9800    2.9900    3.0000    3.0100    3.0200    3.0300
    3.0400    3.0500    3.0600    3.0700    3.0800    3.0900    3.1000    3.1100
    3.1200    3.1300    3.1400    3.1500    3.1600    3.1700    3.1800    3.1900
    3.2000    3.2100    3.2200    3.2300    3.2400    3.2500    3.2600    3.2700
    3.2800    3.2900    3.3000    3.3100    3.3200    3.3300    3.3400    3.3500
    3.3600    3.3700    3.3800    3.3900    3.4000    3.4100    3.4200    3.4300
    3.4400    3.4500    3.4600    3.4700    3.4800    3.4900    3.5000    3.5100
    3.5200    3.5300    3.5400    3.5500    3.5600    3.5700    3.5800    3.5900
    3.6000    3.6100    3.6200    3.6300    3.6400    3.6500    3.6600    3.6700
    3.6800    3.6900    3.7000    3.7100    3.7200    3.7300    3.7400    3.7500
    3.7600    3.7700    3.7800    3.7900    3.8000    3.8100    3.8200    3.8300
    3.8400    3.8500    3.8600    3.8700    3.8800    3.8900    3.9000    3.9100
    3.9200    3.9300    3.9400    3.9500    3.9600    3.9700    3.9800    3.9900
    4.0000    4.0100    4.0200    4.0300    4.0400    4.0500    4.0600    4.0700
    4.0800    4.0900    4.1000    4.1100    4.1200    4.1300    4.1400    4.1500
    4.1600    4.1700    4.1800    4.1900    4.2000    4.2100    4.2200    4.2300
    4.2400    4.2500    4.2600    4.2700    4.2800    4.2900    4.3000    4.3100
    4.3200    4.3300    4.3400    4.3500    4.3600    4.3700    4.3800    4.3900
    4.4000    4.4100    4.4200    4.4300    4.4400    4.4500    4.4600    4.4700
    4.4800    4.4900    4.5000    4.5100    4.5200    4.5300    4.5400    4.5500
    4.5600    4.5700    4.5800    4.5900    4.6000    4.6100    4.6200    4.6300
    4.6400    4.6500    4.6600    4.6700    4.6800    4.6900    4.7000    4.7100
    4.7200    4.7300    4.7400    4.7500    4.7600    4.7700    4.7800    4.7900
    4.8000    4.8100    4.8200    4.8300    4.8400    4.8500    4.8600    4.8700
    4.8800    4.8900    4.9000    4.9100    4.9200    4.9300    4.9400    4.9500
    4.9600    4.9700    4.9800    4.9900    5.0000    5.0100    5.0200    5.0300
    5.0400    5.0500    5.0600    5.0700    5.0800    5.0900    5.1000    5.1100
    5.1200    5.1300    5.1400    5.1500    5.1600    5.1700    5.1800    5.1900
    5.2000    5.2100    5.2200    5.2300    5.2400    5.2500    5.2600    5.2700
    5.2800    5.2900    5.3000    5.3100    5.3200    5.3300    5.3400    5.3500
    5.3600    5.3700    5.3800    5.3900    5.4000    5.4100    5.4200    5.4300
    5.4400    5.4500    5.4600    5.4700    5.4800    5.4900    5.5000    5.5100
    5.5200    5.5300    5.5400    5.5500    5.5600    5.5700    5.5800    5.5900
    5.6000    5.6100    5.6200    5.6300    5.6400    5.6500    5.6600    5.6700
    5.6800    5.6900    5.7000    5.7100    5.7200    5.7300    5.7400    5.7500
    5.7600    5.7700    5.7800    5.7900    5.8000    5.8100    5.8200    5.8300
    5.8400    5.8500    5.8600    5.8700    5.8800    5.8900    5.9000    5.9100
    5.9200    5.9300    5.9400    5.9500    5.9600    5.9700    5.9800    5.9900
    6.0000    6.0100
   </PP_R>
   <PP_RAB type="real"  size=" 602" columns="8">
    0.0100    0.0100    0.0100    0.0100    0.0100    0.0100    0.0100    0.0100
    0.0100    0.0100    0.0100    0.0100    0.0100    0.0100    0.0100    0.0100
    0.0100    0.0100    0.0100    0.0100    0.0100    0.0100    0.0100    0.0100
    0.0100    0.0100    0.0100    0.0100    0.0100    0.0100    0.0100    0.0100
    0.0100    0.0100    0.0100    0.0100    0.0100    0.0100    0.0100    0.0100
    0.0100    0.0100    0.0100    0.0100    0.0100    0.0100    0.0100    0.0100
    0.0100    0.0100    0.0100    0.0100    0.0100    0.0100    0.0100    0.0100
    0.0100    0.0100    0.0100    0.0100    0.0100    0.0100    0.0100    0.0100
    0.0100    0.0100    0.0100    0.0100    0.0100    0.0100    0.0100    0.0100
    0.0100    0.0100    0.0100    0.0100    0.0100    0.0100    0.0100    0.0100
    0.0100    0.0100    0.0100    0.0100    0.0100    0.0100    0.0100    0.0100
    0.0100    0.0100    0.0100    0.0100    0.0100    0.0100    0.0100    0.0100
    0.0100    0.0100    0.0100    0.0100    0.0100    0.0100    0.0100    0.0100
    0.0100    0.0100    0.0100    0.0100    0.0100    0.0100    0.0100    0.0100
    0.0100    0.0100    0.0100    0.0100    0.0100    0.0100    0.0100    0.0100
    0.0100    0.0100    0.0100    0.0100    0.0100    0.0100    0.0100    0.0100
    0.0100    0.0100    0.0100    0.0100    0.0100    0.0100    0.0100    0.0100
    0.0100    0.0100    0.0100    0.0100    0.0100    0.0100    0.0100    0.0100
    0.0100    0.0100    0.0100    0.0100    0.0100    0.0100    0.0100    0.0100
    0.0100    0.0100    0.0100    0.0100    0.0100    0.0100    0.0100    0.0100
    0.0100    0.0100    0.0100    0.0100    0.0100    0.0100    0.0100    0.0100
    0.0100    0.0100    0.0100    0.0100    0.0100    0.0100    0.0100    0.0100
    0.0100    0.0100    0.0100    0.0100    0.0100    0.0100    0.0100    0.0100
    0.0100    0.0100    0.0100    0.0100    0.0100    0.0100    0.0100    0.0100
    0.0100    0.0100    0.0100    0.0100    0.0100    0.0100    0.0100    0.0100
    0.0100    0.0100    0.0100    0.0100    0.0100    0.0100    0.0100    0.0100
    0.0100    0.0100    0.0100    0.0100    0.0100    0.0100    0.0100    0.0100
    0.0100    0.0100    0.0100    0.0100    0.0100    0.0100    0.0100    0.0100
    0.0100    0.0100    0.0100    0.0100    0.0100    0.0100    0.0100    0.0100
    0.0100    0.0100    0.0100    0.0100    0.0100    0.0100    0.0100    0.0100
    0.0100    0.0100    0.0100    0.0100    0.0100    0.0100    0.0100    0.0100
    0.0100    0.0100    0.0100    0.0100    0.0100    0.0100    0.0100    0.0100
    0.0100    0.0100    0.0100    0.0100    0.0100    0.0100    0.0100    0.0100
    0.0100    0.0100    0.0100    0.0100    0.0100    0.0100    0.0100    0.0100
    0.0100    0.0100    0.0100    0.0100    0.0100    0.0100    0.0100    0.0100
    0.0100    0.0100    0.0100    0.0100    0.0100    0.0100    0.0100    0.0100
    0.0100    0.0100    0.0100    0.0100    0.0100    0.0100    0.0100    0.0100
    0.0100    0.0100    0.0100    0.0100    0.0100    0.0100    0.0100    0.0100
    0.0100    0.0100    0.0100    0.0100    0.0100    0.0100    0.0100    0.0100
    0.0100    0.0100    0.0100    0.0100    0.0100    0.0100    0.0100    0.0100
    0.0100    0.0100    0.0100    0.0100    0.0100    0.0100    0.0100    0.0100
    0.0100    0.0100    0.0100    0.0100    0.0100    0.0100    0.0100    0.0100
    0.0100    0.0100    0.0100    0.0100    0.0100    0.0100    0.0100    0.0100
    0.0100    0.0100    0.0100    0.0100    0.0100    0.0100    0.0100    0.0100
    0.0100    0.0100    0.0100    0.0100    0.0100    0.0100    0.0100    0.0100
    0.0100    0.0100    0.0100    0.0100    0.0100    0.0100    0.0100    0.0100
    0.0100    0.0100    0.0100    0.0100    0.0100    0.0100    0.0100    0.0100
    0.0100    0.0100    0.0100    0.0100    0.0100    0.0100    0.0100    0.0100
    0.0100    0.0100    0.0100    0.0100    0.0100    0.0100    0.0100    0.0100
    0.0100    0.0100    0.0100    0.0100    0.0100    0.0100    0.0100    0.0100
    0.0100    0.0100    0.0100    0.0100    0.0100    0.0100    0.0100    0.0100
    0.0100    0.0100    0.0100    0.0100    0.0100    0.0100    0.0100    0.0100
    0.0100    0.0100    0.0100    0.0100    0.0100    0.0100    0.0100    0.0100
    0.0100    0.0100    0.0100    0.0100    0.0100    0.0100    0.0100    0.0100
    0.0100    0.0100    0.0100    0.0100    0.0100    0.0100    0.0100    0.0100
    0.0100    0.0100    0.0100    0.0100    0.0100    0.0100    0.0100    0.0100
    0.0100    0.0100    0.0100    0.0100    0.0100    0.0100    0.0100    0.0100
    0.0100    0.0100    0.0100    0.0100    0.0100    0.0100    0.0100    0.0100
    0.0100    0.0100    0.0100    0.0100    0.0100    0.0100    0.0100    0.0100
    0.0100    0.0100    0.0100    0.0100    0.0100    0.0100    0.0100    0.0100
    0.0100    0.0100    0.0100    0.0100    0.0100    0.0100    0.0100    0.0100
    0.0100    0.0100    0.0100    0.0100    0.0100    0.0100    0.0100    0.0100
    0.0100    0.0100    0.0100    0.0100    0.0100    0.0100    0.0100    0.0100
    0.0100    0.0100    0.0100    0.0100    0.0100    0.0100    0.0100    0.0100
    0.0100    0.0100    0.0100    0.0100    0.0100    0.0100    0.0100    0.0100
    0.0100    0.0100    0.0100    0.0100    0.0100    0.0100    0.0100    0.0100
    0.0100    0.0100    0.0100    0.0100    0.0100    0.0100    0.0100    0.0100
    0.0100    0.0100    0.0100    0.0100    0.0100    0.0100    0.0100    0.0100
    0.0100    0.0100    0.0100    0.0100    0.0100    0.0100    0.0100    0.0100
    0.0100    0.0100    0.0100    0.0100    0.0100    0.0100    0.0100    0.0100
    0.0100    0.0100    0.0100    0.0100    0.0100    0.0100    0.0100    0.0100
    0.0100    0.0100    0.0100    0.0100    0.0100    0.0100    0.0100    0.0100
    0.0100    0.0100    0.0100    0.0100    0.0100    0.0100    0.0100    0.0100
    0.0100    0.0100    0.0100    0.0100    0.0100    0.0100    0.0100    0.0100
    0.0100    0.0100    0.0100    0.0100    0.0100    0.0100    0.0100    0.0100
    0.0100    0.0100
   </PP_RAB>
 </PP_MESH>
  <PP_LOCAL type="real"  size=" 602" columns="4">
   -4.9920512975E-01   -3.8582435681E+01   -4.4313147861E+01   -3.7390106085E+01
   -3.7512074768E+01   -3.7936446615E+01   -3.8016193402E+01   -3.8011338506E+01
   -3.7983046894E+01   -3.7943873718E+01   -3.7896913168E+01   -3.7843386812E+01
   -3.7784148653E+01   -3.7719974811E+01   -3.7651608347E+01   -3.7579765220E+01
   -3.7505141165E+01   -3.7428422364E+01   -3.7350296447E+01   -3.7271460610E+01
   -3.7192624731E+01   -3.7114508231E+01   -3.7037829831E+01   -3.6963289811E+01
   -3.6891544783E+01   -3.6823175344E+01   -3.6758648255E+01   -3.6698274604E+01
   -3.6642167686E+01   -3.6590204066E+01   -3.6541992457E+01   -3.6496855263E+01
   -3.6453827263E+01   -3.6411673584E+01   -3.6368931168E+01   -3.6323969549E+01
   -3.6275070502E+01   -3.6220519501E+01   -3.6158701917E+01   -3.6088195523E+01
   -3.6007852613E+01   -3.5916861316E+01   -3.5814784151E+01   -3.5701569640E+01
   -3.5577537125E+01   -3.5443337252E+01   -3.5299892815E+01   -3.5148326184E+01
   -3.4989881476E+01   -3.4825846137E+01   -3.4657481337E+01   -3.4485966395E+01
   -3.4312354789E+01   -3.4137551268E+01   -3.3962303400E+01   -3.3787200271E+01
   -3.3612691649E+01   -3.3439098979E+01   -3.3266643264E+01   -3.3095459775E+01
   -3.2925622440E+01   -3.2757156866E+01   -3.2590055946E+01   -3.2424289853E+01
   -3.2259813232E+01   -3.2096571099E+01   -3.1934501770E+01   -3.1773538267E+01
   -3.1613608876E+01   -3.1454636489E+01   -3.1296537406E+01   -3.1139219440E+01
   -3.0982580452E+01   -3.0826506601E+01   -3.0670870976E+01   -3.0515532792E+01
   -3.0360337132E+01   -3.0205115471E+01   -3.0049687658E+01   -2.9893864472E+01
   -2.9737451324E+01   -2.9580252853E+01   -2.9422078255E+01   -2.9262747049E+01
   -2.9102094973E+01   -2.8939979610E+01   -2.8776285398E+01   -2.8610927655E+01
   -2.8443855371E+01   -2.8275052585E+01   -2.8104538278E+01   -2.7932364860E+01
   -2.7758615404E+01   -2.7583399869E+01   -2.7406850514E+01   -2.7229117276E+01
   -2.7050362984E+01   -2.6870757845E+01   -2.6690475358E+01   -2.6509688476E+01
   -2.6328566409E+01   -2.6147272144E+01   -2.5965961079E+01   -2.5784778023E+01
   -2.5603858032E+01   -2.5423325780E+01   -2.5243295674E+01   -2.5063872858E+01
   -2.4885151756E+01   -2.4707218483E+01   -2.4530151464E+01   -2.4354022308E+01
   -2.4178895955E+01   -2.4004831120E+01   -2.3831882058E+01   -2.3660098927E+01
   -2.3489527638E+01   -2.3320210395E+01   -2.3152186715E+01   -2.2985493787E+01
   -2.2820165421E+01   -2.2656233482E+01   -2.2493728023E+01   -2.2332676654E+01
   -2.2173104778E+01   -2.2015036306E+01   -2.1858493044E+01   -2.1703494306E+01
   -2.1550058064E+01   -2.1398200080E+01   -2.1247933445E+01   -2.1099270070E+01
   -2.0952219129E+01   -2.0806787305E+01   -2.0662980323E+01   -2.0520800259E+01
   -2.0380247639E+01   -2.0241321535E+01   -2.0104017328E+01   -1.9968329924E+01
   -1.9834251338E+01   -1.9701771695E+01   -1.9570880435E+01   -1.9441563715E+01
   -1.9313807763E+01   -1.9187596484E+01   -1.9062913010E+01   -1.8939739670E+01
   -1.8818057355E+01   -1.8697847088E+01   -1.8579088530E+01   -1.8461761554E+01
   -1.8345845369E+01   -1.8231319146E+01   -1.8118161850E+01   -1.8006352267E+01
   -1.7895869207E+01   -1.7786691026E+01   -1.7678796341E+01   -1.7572162677E+01
   -1.7466768041E+01   -1.7362588667E+01   -1.7259601113E+01   -1.7157783156E+01
   -1.7057112385E+01   -1.6957570115E+01   -1.6859136918E+01   -1.6761795911E+01
   -1.6665529637E+01   -1.6570321837E+01   -1.6476155849E+01   -1.6383014944E+01
   -1.6290882275E+01   -1.6199739672E+01   -1.6109569373E+01   -1.6020351091E+01
   -1.5932065680E+01   -1.5844690574E+01   -1.5758204969E+01   -1.5672584607E+01
   -1.5587806704E+01   -1.5503846633E+01   -1.5420679959E+01   -1.5338282774E+01
   -1.5256630403E+01   -1.5175700179E+01   -1.5095469435E+01   -1.5015916795E+01
   -1.4937024138E+01   -1.4858771219E+01   -1.4781146145E+01   -1.4704131016E+01
   -1.4627718936E+01   -1.4551898192E+01   -1.4476663596E+01   -1.4402011098E+01
   -1.4327936607E+01   -1.4254442655E+01   -1.4181526861E+01   -1.4109194972E+01
   -1.4037449349E+01   -1.3966294881E+01   -1.3895737305E+01   -1.3825781735E+01
   -1.3756434075E+01   -1.3687700511E+01   -1.3619585619E+01   -1.3552094689E+01
   -1.3485232372E+01   -1.3419000873E+01   -1.3353405107E+01   -1.3288444931E+01
   -1.3224122042E+01   -1.3160437187E+01   -1.3097387705E+01   -1.3034974149E+01
   -1.2973192068E+01   -1.2912038205E+01   -1.2851509514E+01   -1.2791599171E+01
   -1.2732302937E+01   -1.2673613863E+01   -1.2615524440E+01   -1.2558028809E+01
   -1.2501117623E+01   -1.2444783072E+01   -1.2389016916E+01   -1.2333809565E+01
   -1.2279152385E+01   -1.2225035880E+01   -1.2171450390E+01   -1.2118386593E+01
   -1.2065834738E+01   -1.2013785160E+01   -1.1962228160E+01   -1.1911154404E+01
   -1.1860554216E+01   -1.1810418173E+01   -1.1760737496E+01   -1.1711502667E+01
   -1.1662705036E+01   -1.1614336468E+01   -1.1566387794E+01   -1.1518851445E+01
   -1.1471720007E+01   -1.1424984850E+01   -1.1378639615E+01   -1.1332677678E+01
   -1.1287091118E+01   -1.1241874767E+01   -1.1197022841E+01   -1.1152528301E+01
   -1.1108386981E+01   -1.1064593945E+01   -1.1021143228E+01   -1.0978031236E+01
   -1.0935253733E+01   -1.0892805929E+01   -1.0850684189E+01   -1.0808884616E+01
   -1.0767402929E+01   -1.0726235592E+01   -1.0685378976E+01   -1.0644829060E+01
   -1.0604582497E+01   -1.0564636010E+01   -1.0524985963E+01   -1.0485629096E+01
   -1.0446562413E+01   -1.0407782610E+01   -1.0369286485E+01   -1.0331071299E+01
   -1.0293134044E+01   -1.0255471568E+01   -1.0218081336E+01   -1.0180960559E+01
   -1.0144106246E+01   -1.0107515903E+01   -1.0071186918E+01   -1.0035116539E+01
   -9.9993022029E+00   -9.9637414507E+00   -9.9284317112E+00   -9.8933703913E+00
   -9.8585551196E+00   -9.8239834270E+00   -9.7896527588E+00   -9.7555607608E+00
   -9.7217050355E+00   -9.6880831100E+00   -9.6546925799E+00   -9.6215311824E+00
   -9.5885965753E+00   -9.5558862546E+00   -9.5233981184E+00   -9.4911299215E+00
   -9.4590793135E+00   -9.4272440716E+00   -9.3956221650E+00   -9.3642114471E+00
   -9.3330095637E+00   -9.3020146568E+00   -9.2712247162E+00   -9.2406376489E+00
   -9.2102513860E+00   -9.1800641087E+00   -9.1500738735E+00   -9.1202785998E+00
   -9.0906764795E+00   -9.0612657243E+00   -9.0320444803E+00   -9.0030107201E+00
   -8.9741628560E+00   -8.9454991222E+00   -8.9170176970E+00   -8.8887167635E+00
   -8.8605947670E+00   -8.8326500234E+00   -8.8048807519E+00   -8.7772853187E+00
   -8.7498622039E+00   -8.7226098013E+00   -8.6955263781E+00   -8.6686104562E+00
   -8.6418605543E+00   -8.6152751406E+00   -8.5888525368E+00   -8.5625913933E+00
   -8.5364902731E+00   -8.5105477153E+00   -8.4847621012E+00   -8.4591321846E+00
   -8.4336565788E+00   -8.4083338878E+00   -8.3831625640E+00   -8.3581414348E+00
   -8.3332691712E+00   -8.3085444413E+00   -8.2839657666E+00   -8.2595320322E+00
   -8.2352419705E+00   -8.2110943141E+00   -8.1870876464E+00   -8.1632209010E+00
   -8.1394928733E+00   -8.1159023545E+00   -8.0924480022E+00   -8.0691287710E+00
   -8.0459435266E+00   -8.0228911162E+00   -7.9999702759E+00   -7.9771799627E+00
   -7.9545191169E+00   -7.9319866391E+00   -7.9095813484E+00   -7.8873021868E+00
   -7.8651481730E+00   -7.8431182584E+00   -7.8212113495E+00   -7.7994263578E+00
   -7.7777623826E+00   -7.7562184240E+00   -7.7347934799E+00   -7.7134864185E+00
   -7.6922964203E+00   -7.6712225318E+00   -7.6502637994E+00   -7.6294191771E+00
   -7.6086877869E+00   -7.5880687654E+00   -7.5675612033E+00   -7.5471641535E+00
   -7.5268766586E+00   -7.5066979482E+00   -7.4866271553E+00   -7.4666634128E+00
   -7.4468057458E+00   -7.4270534044E+00   -7.4074055847E+00   -7.3878614600E+00
   -7.3684201609E+00   -7.3490808283E+00   -7.3298427602E+00   -7.3107051682E+00
   -7.2916672637E+00   -7.2727281624E+00   -7.2538871696E+00   -7.2351435631E+00
   -7.2164965911E+00   -7.1979454818E+00   -7.1794894064E+00   -7.1611277497E+00
   -7.1428597947E+00   -7.1246848247E+00   -7.1066020629E+00   -7.0886108066E+00
   -7.0707104335E+00   -7.0529002599E+00   -7.0351796024E+00   -7.0175476875E+00
   -7.0000039178E+00   -6.9825476690E+00   -6.9651782892E+00   -6.9478951267E+00
   -6.9306974184E+00   -6.9135846522E+00   -6.8965562074E+00   -6.8796114627E+00
   -6.8627497788E+00   -6.8459704626E+00   -6.8292730147E+00   -6.8126568425E+00
   -6.7961213534E+00   -6.7796659258E+00   -6.7632899225E+00   -6.7469928587E+00
   -6.7307741693E+00   -6.7146332894E+00   -6.6985696205E+00   -6.6825825649E+00
   -6.6666716575E+00   -6.6508363595E+00   -6.6350761323E+00   -6.6193904057E+00
   -6.6037786061E+00   -6.5882402929E+00   -6.5727749525E+00   -6.5573820713E+00
   -6.5420611123E+00   -6.5268115115E+00   -6.5116328575E+00   -6.4965246607E+00
   -6.4814864312E+00   -6.4665176702E+00   -6.4516178095E+00   -6.4367864712E+00
   -6.4220231885E+00   -6.4073274942E+00   -6.3926989216E+00   -6.3781369174E+00
   -6.3636411095E+00   -6.3492110630E+00   -6.3348463328E+00   -6.3205464735E+00
   -6.3063109792E+00   -6.2921394435E+00   -6.2780314766E+00   -6.2639866540E+00
   -6.2500045514E+00   -6.2360847143E+00   -6.2222266907E+00   -6.2084301391E+00
   -6.1946946548E+00   -6.1810198332E+00   -6.1674052694E+00   -6.1538504752E+00
   -6.1403551405E+00   -6.1269188855E+00   -6.1135413244E+00   -6.1002220713E+00
   -6.0869606971E+00   -6.0737568215E+00   -6.0606101227E+00   -6.0475202326E+00
   -6.0344867835E+00   -6.0215094073E+00   -6.0085876534E+00   -5.9957212504E+00
   -5.9829098501E+00   -5.9701531017E+00   -5.9574506546E+00   -5.9448021245E+00
   -5.9322071484E+00   -5.9196654435E+00   -5.9071766755E+00   -5.8947405099E+00
   -5.8823566123E+00   -5.8700245870E+00   -5.8577441506E+00   -5.8455150056E+00
   -5.8333368334E+00   -5.8212093150E+00   -5.8091321293E+00   -5.7971048828E+00
   -5.7851273485E+00   -5.7731992224E+00   -5.7613202006E+00   -5.7494899791E+00
   -5.7377082344E+00   -5.7259746259E+00   -5.7142889229E+00   -5.7026508357E+00
   -5.6910600745E+00   -5.6795163495E+00   -5.6680193403E+00   -5.6565687457E+00
   -5.6451643361E+00   -5.6338058354E+00   -5.6224929672E+00   -5.6112254551E+00
   -5.6000029874E+00   -5.5888252887E+00   -5.5776921358E+00   -5.5666032653E+00
   -5.5555584136E+00   -5.5445573174E+00   -5.5335996782E+00   -5.5226852341E+00
   -5.5118137730E+00   -5.5009850435E+00   -5.4901987946E+00   -5.4794547751E+00
   -5.4687527043E+00   -5.4580923224E+00   -5.4474734324E+00   -5.4368957951E+00
   -5.4263591708E+00   -5.4158633202E+00   -5.4054079847E+00   -5.3949928954E+00
   -5.3846178753E+00   -5.3742826959E+00   -5.3639871289E+00   -5.3537309461E+00
   -5.3435139153E+00   -5.3333357485E+00   -5.3231962919E+00   -5.3130953277E+00
   -5.3030326383E+00   -5.2930080061E+00   -5.2830212133E+00   -5.2730719911E+00
   -5.2631601648E+00   -5.2532855426E+00   -5.2434479170E+00   -5.2336470804E+00
   -5.2238828253E+00   -5.2141549176E+00   -5.2044631410E+00   -5.1948073367E+00
   -5.1851873067E+00   -5.1756028533E+00   -5.1660537785E+00   -5.1565398845E+00
   -5.1470609125E+00   -5.1376167320E+00   -5.1282071565E+00   -5.1188319975E+00
   -5.1094910663E+00   -5.1001841742E+00   -5.0909111045E+00   -5.0816716660E+00
   -5.0724657132E+00   -5.0632930663E+00   -5.0541535454E+00   -5.0450469706E+00
   -5.0359731622E+00   -5.0269318885E+00   -5.0179230194E+00   -5.0089463924E+00
   -5.0000018360E+00   -4.9910891786E+00   -4.9822082490E+00   -4.9733588647E+00
   -4.9645408179E+00   -4.9557539936E+00   -4.9469982282E+00   -4.9382733583E+00
   -4.9295792204E+00   -4.9209156510E+00   -4.9122824617E+00   -4.9036794837E+00
   -4.8951065944E+00   -4.8865636380E+00   -4.8780504585E+00   -4.8695669001E+00
   -4.8611128070E+00   -4.8526879896E+00   -4.8442923066E+00   -4.8359256326E+00
   -4.8275878190E+00   -4.8192787172E+00   -4.8109981786E+00   -4.8027460546E+00
   -4.7945221592E+00   -4.7863263675E+00   -4.7781585560E+00   -4.7700185830E+00
   -4.7619063069E+00   -4.7538215859E+00   -4.7457642783E+00   -4.7377342060E+00
   -4.7297312504E+00   -4.7217552941E+00   -4.7138062020E+00   -4.7058838391E+00
   -4.6979880702E+00   -4.6901187603E+00   -4.6822757429E+00   -4.6744588963E+00
   -4.6666681132E+00   -4.6589032649E+00
  </PP_LOCAL>
 <PP_NONLOCAL>
   <PP_BETA.1
       type="real"
       size=" 602"
       columns="4"
       index="1"
       angular_momentum="0"
       cutoff_radius_index=" 300"
       cutoff_radius="    2.9900000000E+00" >
    0.0000000000E+00   -1.2794815040E-02   -2.5603239234E-02   -3.8438830591E-02
   -5.1315044954E-02   -6.4245185209E-02   -7.7242350867E-02   -9.0319388109E-02
   -1.0348884044E-01   -1.1676290004E-01   -1.3015335995E-01   -1.4367156725E-01
   -1.5732837717E-01   -1.7113410851E-01   -1.8509850025E-01   -1.9923066957E-01
   -2.1353907139E-01   -2.2803145942E-01   -2.4271484901E-01   -2.5759548172E-01
   -2.7267879180E-01   -2.8796937464E-01   -3.0347095728E-01   -3.1918637107E-01
   -3.3511752663E-01   -3.5126539086E-01   -3.6762996680E-01   -3.8421027535E-01
   -4.0100433995E-01   -4.1800917364E-01   -4.3522076872E-01   -4.5263408910E-01
   -4.7024306547E-01   -4.8804059283E-01   -5.0601853135E-01   -5.2416770953E-01
   -5.4247793050E-01   -5.6093798085E-01   -5.7953564260E-01   -5.9825770774E-01
   -6.1708999573E-01   -6.3601737376E-01   -6.5502377978E-01   -6.7409224828E-01
   -6.9320493882E-01   -7.1234316723E-01   -7.3148743938E-01   -7.5061748710E-01
   -7.6971230793E-01   -7.8875020626E-01   -8.0770883666E-01   -8.2656524762E-01
   -8.4529593510E-01   -8.6387688832E-01   -8.8228363934E-01   -9.0049132816E-01
   -9.1847474038E-01   -9.3620838742E-01   -9.5366653817E-01   -9.7082330999E-01
   -9.8765269669E-01   -1.0041286626E+00   -1.0202251843E+00   -1.0359163146E+00
   -1.0511762703E+00   -1.0659794691E+00   -1.0803005984E+00   -1.0941147093E+00
   -1.1073972501E+00   -1.1201241379E+00   -1.1322718223E+00   -1.1438173725E+00
   -1.1547385112E+00   -1.1650136863E+00   -1.1746221321E+00   -1.1835439246E+00
   -1.1917600437E+00   -1.1992524406E+00   -1.2060040733E+00   -1.2119989653E+00
   -1.2172222566E+00   -1.2216602504E+00   -1.2253004588E+00   -1.2281316449E+00
   -1.2301438624E+00   -1.2313284919E+00   -1.2316782743E+00   -1.2311873414E+00
   -1.2298512421E+00   -1.2276669661E+00   -1.2246329635E+00   -1.2207491608E+00