<UPF version="2.0.1">
  <PP_INFO>

 This pseudopotential file has been produced using the code
 ONCVPSP  (Optimized Norm-Conservinng Vanderbilt PSeudopotential)
 scalar-relativistic version 2.1.1, 03/26/2014 by D. R. Hamann
 The code is available through a link at URL www.mat-simresearch.com.
 Documentation with the package provides a full discription of the
 input data below.


 While it is not required under the terms of the GNU GPL, it is
 suggested that you cite D. R. Hamann, Phys. Rev. B 88, 085117 (2013)
 in any publication using these pseudopotentials.


 Copyright 2015 The Regents of the University of California
 
 This work is licensed under the Creative Commons Attribution-ShareAlike 
 4.0 International License. To view a copy of this license, visit 
 http://creativecommons.org/licenses/by-sa/4.0/ or send a letter to 
 Creative Commons, PO Box 1866, Mountain View, CA 94042, USA.
 
 This pseudopotential is part of the Schlipf-Gygi norm-conserving 
 pseudopotential library. Its construction parameters were tuned to 
 reproduce materials of a training set with very high accuracy and 
 should be suitable as a general purpose pseudopotential to treat a 
 variety of different compounds. For details of the construction and 
 testing of the pseudopotential please refer to:
 
 [insert reference to paper here]
 
 We kindly ask that you include this reference in all publications 
 associated to this pseudopotential.


    <PP_INPUTFILE>
# ATOM AND REFERENCE CONFIGURATION
# atsym  z    nc    nv    iexc   psfile
  Te 52.00     8     3     4      upf
#
#   n    l    f        energy (Ha)
    1    0    2.00
    2    0    2.00
    2    1    6.00
    3    0    2.00
    3    1    6.00
    3    2   10.00
    4    0    2.00
    4    1    6.00
    4    2   10.00
    5    0    2.00
    5    1    4.00
#
# PSEUDOPOTENTIAL AND OPTIMIZATION
# lmax
    2
#
#   l,   rc,     ep,   ncon, nbas, qcut
    0   3.01641  -0.55523    5    8   3.76267
    1   2.91037  -0.21878    5    8   4.24861
    2   2.61411  -1.53072    5    8   6.79121
#
# LOCAL POTENTIAL
# lloc, lpopt,  rc(5),   dvloc0
    4    5   1.54661      0.00000
#
# VANDERBILT-KLEINMAN-BYLANDER PROJECTORs
# l, nproj, debl
    0    2   0.93379
    1    2   0.68596
    2    2   1.59744
#
# MODEL CORE CHARGE
# icmod, fcfact
    0   0.00000
#
# LOG DERIVATIVE ANALYSIS
# epsh1, epsh2, depsh
   -5.00    3.00    0.02
#
# OUTPUT GRID
# rlmax, drl
    6.00    0.01
#
# TEST CONFIGURATIONS
# ncnf
    0
# nvcnf
#   n    l    f
    </PP_INPUTFILE>
  </PP_INFO>
  <!--                               -->
  <!-- END OF HUMAN READABLE SECTION -->
  <!--                               -->
    <PP_HEADER
       generated="Generated using ONCVPSP code by D. R. Hamann"
       author="Martin Schlipf and Francois Gygi"
       date="150105"
       comment=""
       element="Te"
       pseudo_type="NC"
       relativistic="scalar"
       is_ultrasoft="F"
       is_paw="F"
       is_coulomb="F"
       has_so="F"
       has_wfc="F"
       has_gipaw="F"
       core_correction="F"
       functional="PBE"
       z_valence="   16.00"
       total_psenergy="  -8.77961939379E+01"
       rho_cutoff="   6.01000000000E+00"
       l_max="2"
       l_local="-1"
       mesh_size="   602"
       number_of_wfc="0"
       number_of_proj="6"/>
 <PP_MESH>
   <PP_R type="real"  size=" 602" columns="8">
    0.0000    0.0100    0.0200    0.0300    0.0400    0.0500    0.0600    0.0700
    0.0800    0.0900    0.1000    0.1100    0.1200    0.1300    0.1400    0.1500
    0.1600    0.1700    0.1800    0.1900    0.2000    0.2100    0.2200    0.2300
    0.2400    0.2500    0.2600    0.2700    0.2800    0.2900    0.3000    0.3100
    0.3200    0.3300    0.3400    0.3500    0.3600    0.3700    0.3800    0.3900
    0.4000    0.4100    0.4200    0.4300    0.4400    0.4500    0.4600    0.4700
    0.4800    0.4900    0.5000    0.5100    0.5200    0.5300    0.5400    0.5500
    0.5600    0.5700    0.5800    0.5900    0.6000    0.6100    0.6200    0.6300
    0.6400    0.6500    0.6600    0.6700    0.6800    0.6900    0.7000    0.7100
    0.7200    0.7300    0.7400    0.7500    0.7600    0.7700    0.7800    0.7900
    0.8000    0.8100    0.8200    0.8300    0.8400    0.8500    0.8600    0.8700
    0.8800    0.8900    0.9000    0.9100    0.9200    0.9300    0.9400    0.9500
    0.9600    0.9700    0.9800    0.9900    1.0000    1.0100    1.0200    1.0300
    1.0400    1.0500    1.0600    1.0700    1.0800    1.0900    1.1000    1.1100
    1.1200    1.1300    1.1400    1.1500    1.1600    1.1700    1.1800    1.1900
    1.2000    1.2100    1.2200    1.2300    1.2400    1.2500    1.2600    1.2700
    1.2800    1.2900    1.3000    1.3100    1.3200    1.3300    1.3400    1.3500
    1.3600    1.3700    1.3800    1.3900    1.4000    1.4100    1.4200    1.4300
    1.4400    1.4500    1.4600    1.4700    1.4800    1.4900    1.5000    1.5100
    1.5200    1.5300    1.5400    1.5500    1.5600    1.5700    1.5800    1.5900
    1.6000    1.6100    1.6200    1.6300    1.6400    1.6500    1.6600    1.6700
    1.6800    1.6900    1.7000    1.7100    1.7200    1.7300    1.7400    1.7500
    1.7600    1.7700    1.7800    1.7900    1.8000    1.8100    1.8200    1.8300
    1.8400    1.8500    1.8600    1.8700    1.8800    1.8900    1.9000    1.9100
    1.9200    1.9300    1.9400    1.9500    1.9600    1.9700    1.9800    1.9900
    2.0000    2.0100    2.0200    2.0300    2.0400    2.0500    2.0600    2.0700
    2.0800    2.0900    2.1000    2.1100    2.1200    2.1300    2.1400    2.1500
    2.1600    2.1700    2.1800    2.1900    2.2000    2.2100    2.2200    2.2300
    2.2400    2.2500    2.2600    2.2700    2.2800    2.2900    2.3000    2.3100
    2.3200    2.3300    2.3400    2.3500    2.3600    2.3700    2.3800    2.3900
    2.4000    2.4100    2.4200    2.4300    2.4400    2.4500    2.4600    2.4700
    2.4800    2.4900    2.5000    2.5100    2.5200    2.5300    2.5400    2.5500
    2.5600    2.5700    2.5800    2.5900    2.6000    2.6100    2.6200    2.6300
    2.6400    2.6500    2.6600    2.6700    2.6800    2.6900    2.7000    2.7100
    2.7200    2.7300    2.7400    2.7500    2.7600    2.7700    2.7800    2.7900
    2.8000    2.8100    2.8200    2.8300    2.8400    2.8500    2.8600    2.8700
    2.8800    2.8900    2.9000    2.9100    2.9200    2.9300    2.9400    2.9500
    2.9600    2.9700    2.9800    2.9900    3.0000    3.0100    3.0200    3.0300
    3.0400    3.0500    3.0600    3.0700    3.0800    3.0900    3.1000    3.1100
    3.1200    3.1300    3.1400    3.1500    3.1600    3.1700    3.1800    3.1900
    3.2000    3.2100    3.2200    3.2300    3.2400    3.2500    3.2600    3.2700
    3.2800    3.2900    3.3000    3.3100    3.3200    3.3300    3.3400    3.3500
    3.3600    3.3700    3.3800    3.3900    3.4000    3.4100    3.4200    3.4300
    3.4400    3.4500    3.4600    3.4700    3.4800    3.4900    3.5000    3.5100
    3.5200    3.5300    3.5400    3.5500    3.5600    3.5700    3.5800    3.5900
    3.6000    3.6100    3.6200    3.6300    3.6400    3.6500    3.6600    3.6700
    3.6800    3.6900    3.7000    3.7100    3.7200    3.7300    3.7400    3.7500
    3.7600    3.7700    3.7800    3.7900    3.8000    3.8100    3.8200    3.8300
    3.8400    3.8500    3.8600    3.8700    3.8800    3.8900    3.9000    3.9100
    3.9200    3.9300    3.9400    3.9500    3.9600    3.9700    3.9800    3.9900
    4.0000    4.0100    4.0200    4.0300    4.0400    4.0500    4.0600    4.0700
    4.0800    4.0900    4.1000    4.1100    4.1200    4.1300    4.1400    4.1500
    4.1600    4.1700    4.1800    4.1900    4.2000    4.2100    4.2200    4.2300
    4.2400    4.2500    4.2600    4.2700    4.2800    4.2900    4.3000    4.3100
    4.3200    4.3300    4.3400    4.3500    4.3600    4.3700    4.3800    4.3900
    4.4000    4.4100    4.4200    4.4300    4.4400    4.4500    4.4600    4.4700
    4.4800    4.4900    4.5000    4.5100    4.5200    4.5300    4.5400    4.5500
    4.5600    4.5700    4.5800    4.5900    4.6000    4.6100    4.6200    4.6300
    4.6400    4.6500    4.6600    4.6700    4.6800    4.6900    4.7000    4.7100
    4.7200    4.7300    4.7400    4.7500    4.7600    4.7700    4.7800    4.7900
    4.8000    4.8100    4.8200    4.8300    4.8400    4.8500    4.8600    4.8700
    4.8800    4.8900    4.9000    4.9100    4.9200    4.9300    4.9400    4.9500
    4.9600    4.9700    4.9800    4.9900    5.0000    5.0100    5.0200    5.0300
    5.0400    5.0500    5.0600    5.0700    5.0800    5.0900    5.1000    5.1100
    5.1200    5.1300    5.1400    5.1500    5.1600    5.1700    5.1800    5.1900
    5.2000    5.2100    5.2200    5.2300    5.2400    5.2500    5.2600    5.2700
    5.2800    5.2900    5.3000    5.3100    5.3200    5.3300    5.3400    5.3500
    5.3600    5.3700    5.3800    5.3900    5.4000    5.4100    5.4200    5.4300
    5.4400    5.4500    5.4600    5.4700    5.4800    5.4900    5.5000    5.5100
    5.5200    5.5300    5.5400    5.5500    5.5600    5.5700    5.5800    5.5900
    5.6000    5.6100    5.6200    5.6300    5.6400    5.6500    5.6600    5.6700
    5.6800    5.6900    5.7000    5.7100    5.7200    5.7300    5.7400    5.7500
    5.7600    5.7700    5.7800    5.7900    5.8000    5.8100    5.8200    5.8300
    5.8400    5.8500    5.8600    5.8700    5.8800    5.8900    5.9000    5.9100
    5.9200    5.9300    5.9400    5.9500    5.9600    5.9700    5.9800    5.9900
    6.0000    6.0100
   </PP_R>
   <PP_RAB type="real"  size=" 602" columns="8">
    0.0100    0.0100    0.0100    0.0100    0.0100    0.0100    0.0100    0.0100
    0.0100    0.0100    0.0100    0.0100    0.0100    0.0100    0.0100    0.0100
    0.0100    0.0100    0.0100    0.0100    0.0100    0.0100    0.0100    0.0100
    0.0100    0.0100    0.0100    0.0100    0.0100    0.0100    0.0100    0.0100
    0.0100    0.0100    0.0100    0.0100    0.0100    0.0100    0.0100    0.0100
    0.0100    0.0100    0.0100    0.0100    0.0100    0.0100    0.0100    0.0100
    0.0100    0.0100    0.0100    0.0100    0.0100    0.0100    0.0100    0.0100
    0.0100    0.0100    0.0100    0.0100    0.0100    0.0100    0.0100    0.0100
    0.0100    0.0100    0.0100    0.0100    0.0100    0.0100    0.0100    0.0100
    0.0100    0.0100    0.0100    0.0100    0.0100    0.0100    0.0100    0.0100
    0.0100    0.0100    0.0100    0.0100    0.0100    0.0100    0.0100    0.0100
    0.0100    0.0100    0.0100    0.0100    0.0100    0.0100    0.0100    0.0100
    0.0100    0.0100    0.0100    0.0100    0.0100    0.0100    0.0100    0.0100
    0.0100    0.0100    0.0100    0.0100    0.0100    0.0100    0.0100    0.0100
    0.0100    0.0100    0.0100    0.0100    0.0100    0.0100    0.0100    0.0100
    0.0100    0.0100    0.0100    0.0100    0.0100    0.0100    0.0100    0.0100
    0.0100    0.0100    0.0100    0.0100    0.0100    0.0100    0.0100    0.0100
    0.0100    0.0100    0.0100    0.0100    0.0100    0.0100    0.0100    0.0100
    0.0100    0.0100    0.0100    0.0100    0.0100    0.0100    0.0100    0.0100
    0.0100    0.0100    0.0100    0.0100    0.0100    0.0100    0.0100    0.0100
    0.0100    0.0100    0.0100    0.0100    0.0100    0.0100    0.0100    0.0100
    0.0100    0.0100    0.0100    0.0100    0.0100    0.0100    0.0100    0.0100
    0.0100    0.0100    0.0100    0.0100    0.0100    0.0100    0.0100    0.0100
    0.0100    0.0100    0.0100    0.0100    0.0100    0.0100    0.0100    0.0100
    0.0100    0.0100    0.0100    0.0100    0.0100    0.0100    0.0100    0.0100
    0.0100    0.0100    0.0100    0.0100    0.0100    0.0100    0.0100    0.0100
    0.0100    0.0100    0.0100    0.0100    0.0100    0.0100    0.0100    0.0100
    0.0100    0.0100    0.0100    0.0100    0.0100    0.0100    0.0100    0.0100
    0.0100    0.0100    0.0100    0.0100    0.0100    0.0100    0.0100    0.0100
    0.0100    0.0100    0.0100    0.0100    0.0100    0.0100    0.0100    0.0100
    0.0100    0.0100    0.0100    0.0100    0.0100    0.0100    0.0100    0.0100
    0.0100    0.0100    0.0100    0.0100    0.0100    0.0100    0.0100    0.0100
    0.0100    0.0100    0.0100    0.0100    0.0100    0.0100    0.0100    0.0100
    0.0100    0.0100    0.0100    0.0100    0.0100    0.0100    0.0100    0.0100
    0.0100    0.0100    0.0100    0.0100    0.0100    0.0100    0.0100    0.0100
    0.0100    0.0100    0.0100    0.0100    0.0100    0.0100    0.0100    0.0100
    0.0100    0.0100    0.0100    0.0100    0.0100    0.0100    0.0100    0.0100
    0.0100    0.0100    0.0100    0.0100    0.0100    0.0100    0.0100    0.0100
    0.0100    0.0100    0.0100    0.0100    0.0100    0.0100    0.0100    0.0100
    0.0100    0.0100    0.0100    0.0100    0.0100    0.0100    0.0100    0.0100
    0.0100    0.0100    0.0100    0.0100    0.0100    0.0100    0.0100    0.0100
    0.0100    0.0100    0.0100    0.0100    0.0100    0.0100    0.0100    0.0100
    0.0100    0.0100    0.0100    0.0100    0.0100    0.0100    0.0100    0.0100
    0.0100    0.0100    0.0100    0.0100    0.0100    0.0100    0.0100    0.0100
    0.0100    0.0100    0.0100    0.0100    0.0100    0.0100    0.0100    0.0100
    0.0100    0.0100    0.0100    0.0100    0.0100    0.0100    0.0100    0.0100
    0.0100    0.0100    0.0100    0.0100    0.0100    0.0100    0.0100    0.0100
    0.0100    0.0100    0.0100    0.0100    0.0100    0.0100    0.0100    0.0100
    0.0100    0.0100    0.0100    0.0100    0.0100    0.0100    0.0100    0.0100
    0.0100    0.0100    0.0100    0.0100    0.0100    0.0100    0.0100    0.0100
    0.0100    0.0100    0.0100    0.0100    0.0100    0.0100    0.0100    0.0100
    0.0100    0.0100    0.0100    0.0100    0.0100    0.0100    0.0100    0.0100
    0.0100    0.0100    0.0100    0.0100    0.0100    0.0100    0.0100    0.0100
    0.0100    0.0100    0.0100    0.0100    0.0100    0.0100    0.0100    0.0100
    0.0100    0.0100    0.0100    0.0100    0.0100    0.0100    0.0100    0.0100
    0.0100    0.0100    0.0100    0.0100    0.0100    0.0100    0.0100    0.0100
    0.0100    0.0100    0.0100    0.0100    0.0100    0.0100    0.0100    0.0100
    0.0100    0.0100    0.0100    0.0100    0.0100    0.0100    0.0100    0.0100
    0.0100    0.0100    0.0100    0.0100    0.0100    0.0100    0.0100    0.0100
    0.0100    0.0100    0.0100    0.0100    0.0100    0.0100    0.0100    0.0100
    0.0100    0.0100    0.0100    0.0100    0.0100    0.0100    0.0100    0.0100
    0.0100    0.0100    0.0100    0.0100    0.0100    0.0100    0.0100    0.0100
    0.0100    0.0100    0.0100    0.0100    0.0100    0.0100    0.0100    0.0100
    0.0100    0.0100    0.0100    0.0100    0.0100    0.0100    0.0100    0.0100
    0.0100    0.0100    0.0100    0.0100    0.0100    0.0100    0.0100    0.0100
    0.0100    0.0100    0.0100    0.0100    0.0100    0.0100    0.0100    0.0100
    0.0100    0.0100    0.0100    0.0100    0.0100    0.0100    0.0100    0.0100
    0.0100    0.0100    0.0100    0.0100    0.0100    0.0100    0.0100    0.0100
    0.0100    0.0100    0.0100    0.0100    0.0100    0.0100    0.0100    0.0100
    0.0100    0.0100    0.0100    0.0100    0.0100    0.0100    0.0100    0.0100
    0.0100    0.0100    0.0100    0.0100    0.0100    0.0100    0.0100    0.0100
    0.0100    0.0100    0.0100    0.0100    0.0100    0.0100    0.0100    0.0100
    0.0100    0.0100    0.0100    0.0100    0.0100    0.0100    0.0100    0.0100
    0.0100    0.0100    0.0100    0.0100    0.0100    0.0100    0.0100    0.0100
    0.0100    0.0100    0.0100    0.0100    0.0100    0.0100    0.0100    0.0100
    0.0100    0.0100
   </PP_RAB>
 </PP_MESH>
  <PP_LOCAL type="real"  size=" 602" columns="4">
   -4.4016727005E+01   -4.4149719317E+01   -4.4181366220E+01   -4.4325446144E+01
   -4.4795737517E+01   -4.5776761387E+01   -4.6651051617E+01   -4.6167173371E+01
   -4.4799802376E+01   -4.3893917781E+01   -4.3603379512E+01   -4.3574344484E+01
   -4.3594452033E+01   -4.3598826678E+01   -4.3579307825E+01   -4.3541155070E+01
   -4.3490307799E+01   -4.3431061295E+01   -4.3366275932E+01   -4.3297900064E+01
   -4.3227352199E+01   -4.3155741792E+01   -4.3083980351E+01   -4.3012826461E+01
   -4.2942892879E+01   -4.2874632305E+01   -4.2808312330E+01   -4.2743986852E+01
   -4.2681470095E+01   -4.2620318210E+01   -4.2559823361E+01   -4.2499024039E+01
   -4.2436734076E+01   -4.2371590669E+01   -4.2302119744E+01   -4.2226815125E+01
   -4.2144225414E+01   -4.2053040545E+01   -4.1952171534E+01   -4.1840816434E+01
   -4.1718504170E+01   -4.1585115549E+01   -4.1440878624E+01   -4.1286339962E+01
   -4.1122315474E+01   -4.0949826356E+01   -4.0770026887E+01   -4.0584131237E+01
   -4.0393346091E+01   -4.0198814063E+01   -4.0001569986E+01   -3.9802514826E+01
   -3.9602404518E+01   -3.9401845948E+01   -3.9201311337E+01   -3.9001151070E+01
   -3.8801613130E+01   -3.8602863288E+01   -3.8405002153E+01   -3.8208082308E+01
   -3.8012121113E+01   -3.7817111108E+01   -3.7623028475E+01   -3.7429837658E+01
   -3.7237495562E+01   -3.7045953248E+01   -3.6855156309E+01   -3.6665044763E+01
   -3.6475551990E+01   -3.6286603083E+01   -3.6098113000E+01   -3.5909985043E+01
   -3.5722109257E+01   -3.5534361421E+01   -3.5346602426E+01   -3.5158678522E+01
   -3.4970422975E+01   -3.4781658322E+01   -3.4592199840E+01   -3.4401860005E+01
   -3.4210453817E+01   -3.4017804708E+01   -3.3823750723E+01   -3.3628150569E+01
   -3.3430889148E+01   -3.3231882180E+01   -3.3031079597E+01   -3.2828467484E+01
   -3.2624068464E+01   -3.2417940539E+01   -3.2210174544E+01   -3.2000890427E+01
   -3.1790232697E+01   -3.1578365340E+01   -3.1365466585E+01   -3.1151723776E+01
   -3.0937328633E+01   -3.0722473279E+01   -3.0507346295E+01   -3.0292129921E+01
   -3.0076998103E+01   -2.9862115051E+01   -2.9647634412E+01   -2.9433699234E+01
   -2.9220441414E+01   -2.9007981659E+01   -2.8796431140E+01   -2.8585891794E+01
   -2.8376457421E+01   -2.8168213672E+01   -2.7961238875E+01   -2.7755605629E+01
   -2.7551381203E+01   -2.7348628067E+01   -2.7147403500E+01   -2.6947761380E+01
   -2.6749752264E+01   -2.6553423238E+01   -2.6358817922E+01   -2.6165977402E+01
   -2.5974940533E+01   -2.5785742446E+01   -2.5598415995E+01   -2.5412991924E+01
   -2.5229497681E+01   -2.5047957844E+01   -2.4868395027E+01   -2.4690828535E+01
   -2.4515274378E+01   -2.4341746775E+01   -2.4170256203E+01   -2.4000809869E+01
   -2.3833413459E+01   -2.3668068103E+01   -2.3504772463E+01   -2.3343523689E+01
   -2.3184313815E+01   -2.3027134005E+01   -2.2871972441E+01   -2.2718814070E+01
   -2.2567643352E+01   -2.2418440746E+01   -2.2271186135E+01   -2.2125857506E+01
   -2.1982430771E+01   -2.1840881802E+01   -2.1701183927E+01   -2.1563310669E+01
   -2.1427234146E+01   -2.1292925892E+01   -2.1160357052E+01   -2.1029497446E+01
   -2.0900317292E+01   -2.0772784583E+01   -2.0646867823E+01   -2.0522532852E+01
   -2.0399746244E+01   -2.0278474318E+01   -2.0158684689E+01   -2.0040346257E+01
   -1.9923428200E+01   -1.9807900355E+01   -1.9693731549E+01   -1.9580891244E+01
   -1.9469346114E+01   -1.9359063972E+01   -1.9250008107E+01   -1.9142143549E+01
   -1.9035429854E+01   -1.8929828500E+01   -1.8825296025E+01   -1.8721790279E+01
   -1.8619266503E+01   -1.8517679852E+01   -1.8416986675E+01   -1.8317141616E+01
   -1.8218104618E+01   -1.8119833241E+01   -1.8022292960E+01   -1.7925448469E+01
   -1.7829271788E+01   -1.7733738790E+01   -1.7638828234E+01   -1.7544529749E+01
   -1.7450828779E+01   -1.7357728663E+01   -1.7265221840E+01   -1.7173321323E+01
   -1.7082030371E+01   -1.6991364313E+01   -1.6901336384E+01   -1.6811962470E+01
   -1.6723260688E+01   -1.6635248022E+01   -1.6547941594E+01   -1.6461360235E+01
   -1.6375516892E+01   -1.6290428442E+01   -1.6206105890E+01   -1.6122560070E+01
   -1.6039801676E+01   -1.5957834179E+01   -1.5876667074E+01   -1.5796299433E+01
   -1.5716734526E+01   -1.5637972096E+01   -1.5560008611E+01   -1.5482843995E+01
   -1.5406470919E+01   -1.5330885656E+01   -1.5256081564E+01   -1.5182050831E+01
   -1.5108787242E+01   -1.5036281065E+01   -1.4964524276E+01   -1.4893507701E+01
   -1.4823221496E+01   -1.4753656687E+01   -1.4684802842E+01   -1.4616650120E+01
   -1.4549188504E+01   -1.4482407633E+01   -1.4416297361E+01   -1.4350847382E+01
   -1.4286047387E+01   -1.4221887067E+01   -1.4158356234E+01   -1.4095444577E+01
   -1.4033141915E+01   -1.3971438251E+01   -1.3910323303E+01   -1.3849787270E+01
   -1.3789820372E+01   -1.3730412405E+01   -1.3671554156E+01   -1.3613235985E+01
   -1.3555448147E+01   -1.3498181870E+01   -1.3441427769E+01   -1.3385176734E+01
   -1.3329420459E+01   -1.3274149887E+01   -1.3219356662E+01   -1.3165032987E+01
   -1.3111170212E+01   -1.3057760799E+01   -1.3004797505E+01   -1.2952272166E+01
   -1.2900178072E+01   -1.2848508569E+01   -1.2797256061E+01   -1.2746414614E+01
   -1.2695978200E+01   -1.2645939856E+01   -1.2596294331E+01   -1.2547036240E+01
   -1.2498159304E+01   -1.2449658829E+01   -1.2401530079E+01   -1.2353767491E+01
   -1.2306366788E+01   -1.2259323841E+01   -1.2212633820E+01   -1.2166292710E+01
   -1.2120296867E+01   -1.2074642113E+01   -1.2029324598E+01   -1.1984340974E+01
   -1.1939687497E+01   -1.1895360430E+01   -1.1851356694E+01   -1.1807672888E+01
   -1.1764305344E+01   -1.1721251240E+01   -1.1678507424E+01   -1.1636070510E+01
   -1.1593937658E+01   -1.1552105946E+01   -1.1510572275E+01   -1.1469333737E+01
   -1.1428387584E+01   -1.1387730931E+01   -1.1347360849E+01   -1.1307274679E+01
   -1.1267469648E+01   -1.1227942912E+01   -1.1188691788E+01   -1.1149713559E+01
   -1.1111005461E+01   -1.1072564768E+01   -1.1034388846E+01   -1.0996475009E+01
   -1.0958820381E+01   -1.0921422562E+01   -1.0884278984E+01   -1.0847386953E+01
   -1.0810743933E+01   -1.0774347601E+01   -1.0738195504E+01   -1.0702285063E+01
   -1.0666614002E+01   -1.0631179945E+01   -1.0595980414E+01   -1.0561012995E+01
   -1.0526275586E+01   -1.0491765923E+01   -1.0457481562E+01   -1.0423420435E+01
   -1.0389580455E+01   -1.0355959453E+01   -1.0322555114E+01   -1.0289365569E+01
   -1.0256388764E+01   -1.0223622561E+01   -1.0191064886E+01   -1.0158713917E+01
   -1.0126567694E+01   -1.0094624129E+01   -1.0062881367E+01   -1.0031337621E+01
   -9.9999910239E+00   -9.9688395423E+00   -9.9378815060E+00   -9.9071151717E+00
   -9.8765387582E+00   -9.8461502952E+00   -9.8159482662E+00   -9.7859309772E+00
   -9.7560967116E+00   -9.7264436225E+00   -9.6969702631E+00   -9.6676750138E+00
   -9.6385562245E+00   -9.6096121590E+00   -9.5808414308E+00   -9.5522424956E+00
   -9.5238137761E+00   -9.4955536209E+00   -9.4674607090E+00   -9.4395335680E+00
   -9.4117706983E+00   -9.3841705103E+00   -9.3567317526E+00   -9.3294530213E+00
   -9.3023329004E+00   -9.2753698391E+00   -9.2485626605E+00   -9.2219100257E+00
   -9.1954105959E+00   -9.1690628727E+00   -9.1428657232E+00   -9.1168178821E+00
   -9.0909180726E+00   -9.0651648895E+00   -9.0395571876E+00   -9.0140937915E+00
   -8.9887734838E+00   -8.9635949576E+00   -8.9385570366E+00   -8.9136586384E+00
   -8.8888986026E+00   -8.8642757260E+00   -8.8397887837E+00   -8.8154367891E+00
   -8.7912186356E+00   -8.7671332167E+00   -8.7431792813E+00   -8.7193559024E+00
   -8.6956620369E+00   -8.6720966296E+00   -8.6486585398E+00   -8.6253467529E+00
   -8.6021603342E+00   -8.5790982777E+00   -8.5561595598E+00   -8.5333430649E+00
   -8.5106479656E+00   -8.4880733029E+00   -8.4656181176E+00   -8.4432813572E+00
   -8.4210621270E+00   -8.3989595687E+00   -8.3769727678E+00   -8.3551007969E+00
   -8.3333426280E+00   -8.3116975184E+00   -8.2901645964E+00   -8.2687429901E+00
   -8.2474317571E+00   -8.2262300427E+00   -8.2051370880E+00   -8.1841520618E+00
   -8.1632741328E+00   -8.1425023544E+00   -8.1218360200E+00   -8.1012743595E+00
   -8.0808165803E+00   -8.0604618710E+00   -8.0402093471E+00   -8.0200583679E+00
   -8.0000081778E+00   -7.9800580210E+00   -7.9602070920E+00   -7.9404546145E+00
   -7.9207999511E+00   -7.9012423812E+00   -7.8817811843E+00   -7.8624155681E+00
   -7.8431448438E+00   -7.8239683825E+00   -7.8048854975E+00   -7.7858955017E+00
   -7.7669976230E+00   -7.7481912393E+00   -7.7294757372E+00   -7.7108504617E+00
   -7.6923147579E+00   -7.6738678800E+00   -7.6555092534E+00   -7.6372382863E+00
   -7.6190543542E+00   -7.6009568327E+00   -7.5829450080E+00   -7.5650183351E+00
   -7.5471762497E+00   -7.5294181566E+00   -7.5117434604E+00   -7.4941514847E+00
   -7.4766416970E+00   -7.4592135665E+00   -7.4418665257E+00   -7.4246000070E+00
   -7.4074133765E+00   -7.3903060983E+00   -7.3732776805E+00   -7.3563275820E+00
   -7.3394552616E+00   -7.3226601332E+00   -7.3059416424E+00   -7.2892993410E+00
   -7.2727327131E+00   -7.2562412427E+00   -7.2398243964E+00   -7.2234815879E+00
   -7.2072124165E+00   -7.1910163902E+00   -7.1748930173E+00   -7.1588418057E+00
   -7.1428621729E+00   -7.1269537211E+00   -7.1111159971E+00   -7.0953485319E+00
   -7.0796508565E+00   -7.0640224503E+00   -7.0484628526E+00   -7.0329716699E+00
   -7.0175484550E+00   -7.0021927608E+00   -6.9869041340E+00   -6.9716820401E+00
   -6.9565261473E+00   -6.9414360291E+00   -6.9264112592E+00   -6.9114514115E+00
   -6.8965560029E+00   -6.8817246308E+00   -6.8669569327E+00   -6.8522525019E+00
   -6.8376109321E+00   -6.8230318165E+00   -6.8085146536E+00   -6.7940591509E+00
   -6.7796649210E+00   -6.7653315764E+00   -6.7510587296E+00   -6.7368459569E+00
   -6.7226928540E+00   -6.7085991108E+00   -6.6945643579E+00   -6.6805882258E+00
   -6.6666703451E+00   -6.6528102831E+00   -6.6390077150E+00   -6.6252623184E+00
   -6.6115737413E+00   -6.5979416312E+00   -6.5843656361E+00   -6.5708453214E+00
   -6.5573804240E+00   -6.5439706160E+00   -6.5306155615E+00   -6.5173149246E+00
   -6.5040683621E+00   -6.4908754665E+00   -6.4777359976E+00   -6.4646496354E+00
   -6.4516160596E+00   -6.4386349501E+00   -6.4257059709E+00   -6.4128287497E+00
   -6.4000030515E+00   -6.3872285711E+00   -6.3745050032E+00   -6.3618320426E+00
   -6.3492093663E+00   -6.3366366228E+00   -6.3241135876E+00   -6.3116399697E+00
   -6.2992154781E+00   -6.2868398218E+00   -6.2745126962E+00   -6.2622337570E+00
   -6.2500027953E+00   -6.2378195338E+00   -6.2256836949E+00   -6.2135950011E+00
   -6.2015531716E+00   -6.1895578564E+00   -6.1776088672E+00   -6.1657059393E+00
   -6.1538488082E+00   -6.1420372095E+00   -6.1302708785E+00   -6.1185494840E+00
   -6.1068728266E+00   -6.0952406658E+00   -6.0836527494E+00   -6.0721088252E+00
   -6.0606086411E+00   -6.0491518994E+00   -6.0377383679E+00   -6.0263678380E+00
   -6.0150400693E+00   -6.0037548215E+00   -5.9925118539E+00   -5.9813109075E+00
   -5.9701517065E+00   -5.9590340780E+00   -5.9479577929E+00   -5.9369226217E+00
   -5.9259283354E+00   -5.9149747046E+00   -5.9040614395E+00   -5.8931883673E+00
   -5.8823552820E+00   -5.8715619651E+00   -5.8608081981E+00   -5.8500937623E+00
   -5.8394184151E+00   -5.8287819174E+00   -5.8181841086E+00   -5.8076247802E+00
   -5.7971037238E+00   -5.7866207311E+00   -5.7761755936E+00   -5.7657680498E+00
   -5.7553979348E+00   -5.7450650667E+00   -5.7347692469E+00   -5.7245102766E+00
   -5.7142879572E+00   -5.7041020823E+00   -5.6939524015E+00   -5.6838387856E+00
   -5.6737610451E+00   -5.6637189906E+00   -5.6537124327E+00   -5.6437411820E+00
   -5.6338050235E+00   -5.6239037549E+00   -5.6140372372E+00   -5.6042052897E+00
   -5.5944077318E+00   -5.5846443830E+00   -5.5749150626E+00   -5.5652195528E+00
   -5.5555576865E+00   -5.5459293198E+00   -5.5363342805E+00   -5.5267723965E+00
   -5.5172434955E+00   -5.5077474053E+00   -5.4982839108E+00   -5.4888528671E+00
   -5.4794541309E+00   -5.4700875382E+00   -5.4607529246E+00   -5.4514501261E+00
   -5.4421789784E+00   -5.4329392739E+00   -5.4237308783E+00   -5.4145536539E+00
   -5.4054074441E+00   -5.3962920925E+00   -5.3872074426E+00   -5.3781533377E+00
   -5.3691295826E+00   -5.3601360419E+00   -5.3511725887E+00   -5.3422390735E+00
   -5.3333353473E+00   -5.3244612607E+00
  </PP_LOCAL>
 <PP_NONLOCAL>
   <PP_BETA.1
       type="real"
       size=" 602"
       columns="4"
       index="1"
       angular_momentum="0"
       cutoff_radius_index=" 306"
       cutoff_radius="    3.0500000000E+00" >
    0.0000000000E+00   -1.8811911002E-02   -3.7628167320E-02   -5.6453078757E-02
   -7.5290884179E-02   -9.4145716251E-02   -1.1302156643E-01   -1.3192225030E-01
   -1.5085137329E-01   -1.6981229695E-01   -1.8880810576E-01   -2.0784157464E-01
   -2.2691513715E-01   -2.4603085464E-01   -2.6519038616E-01   -2.8439495948E-01
   -3.0364534308E-01   -3.2294181942E-01   -3.4228415928E-01   -3.6167159752E-01
   -3.8110281017E-01   -4.0057589294E-01   -4.2008834135E-01   -4.3963703232E-01
   -4.5921820751E-01   -4.7882745837E-01   -4.9845971297E-01   -5.1810922461E-01
   -5.3776956251E-01   -5.5743360425E-01   -5.7709353039E-01   -5.9674082105E-01
   -6.1636625461E-01   -6.3595990868E-01   -6.5551116291E-01   -6.7500870455E-01
   -6.9444053566E-01   -7.1379398302E-01   -7.3305571008E-01   -7.5221173133E-01
   -7.7124742887E-01   -7.9014757127E-01   -8.0889633476E-01   -8.2747732669E-01
   -8.4587361122E-01   -8.6406773726E-01   -8.8204176856E-01   -8.9977731605E-01
   -9.1725557176E-01   -9.3445734536E-01   -9.5136310403E-01   -9.6795301110E-01
   -9.8420696582E-01   -1.0001046552E+00   -1.0156255903E+00   -1.0307491588E+00
   -1.0454546739E+00   -1.0597214190E+00   -1.0735287074E+00   -1.0868559259E+00
   -1.0996825931E+00   -1.1119884177E+00   -1.1237533334E+00   -1.1349575885E+00
   -1.1455817719E+00   -1.1556068704E+00   -1.1650143535E+00   -1.1737861997E+00
   -1.1819049559E+00   -1.1893538039E+00   -1.1961166174E+00   -1.2021780027E+00
   -1.2075233567E+00   -1.2121389152E+00   -1.2160118098E+00   -1.2191301236E+00
   -1.2214829231E+00   -1.2230603098E+00   -1.2238534634E+00   -1.2238546833E+00
   -1.2230574274E+00   -1.2214563477E+00   -1.2190473250E+00   -1.2158274983E+00
   -1.2117952936E+00   -1.2069504477E+00   -1.2012940298E+00   -1.1948284594E+00
   -1.1875575207E+00   -1.1794863737E+00   -1.1706215608E+00   -1.1609710107E+00