<UPF version="2.0.1">
  <PP_INFO>

 This pseudopotential file has been produced using the code
 ONCVPSP  (Optimized Norm-Conservinng Vanderbilt PSeudopotential)
 scalar-relativistic version 2.1.1, 03/26/2014 by D. R. Hamann
 The code is available through a link at URL www.mat-simresearch.com.
 Documentation with the package provides a full discription of the
 input data below.


 While it is not required under the terms of the GNU GPL, it is
 suggested that you cite D. R. Hamann, Phys. Rev. B 88, 085117 (2013)
 in any publication using these pseudopotentials.


 Copyright 2015 The Regents of the University of California
 
 This work is licensed under the Creative Commons Attribution-ShareAlike 
 4.0 International License. To view a copy of this license, visit 
 http://creativecommons.org/licenses/by-sa/4.0/ or send a letter to 
 Creative Commons, PO Box 1866, Mountain View, CA 94042, USA.
 
 This pseudopotential is part of the Schlipf-Gygi norm-conserving 
 pseudopotential library. Its construction parameters were tuned to 
 reproduce materials of a training set with very high accuracy and 
 should be suitable as a general purpose pseudopotential to treat a 
 variety of different compounds. For details of the construction and 
 testing of the pseudopotential please refer to:
 
 [insert reference to paper here]
 
 We kindly ask that you include this reference in all publications 
 associated to this pseudopotential.


    <PP_INPUTFILE>
# ATOM AND REFERENCE CONFIGURATION
# atsym  z    nc    nv    iexc   psfile
  Ti 22.00     3     4     4      upf
#
#   n    l    f        energy (Ha)
    1    0    2.00
    2    0    2.00
    2    1    6.00
    3    0    2.00
    3    1    6.00
    4    0    2.00
    3    2    2.00
#
# PSEUDOPOTENTIAL AND OPTIMIZATION
# lmax
    2
#
#   l,   rc,     ep,   ncon, nbas, qcut
    0   2.46607  -2.30174    5    8   3.75809
    1   2.32329  -1.42811    5    8   6.54321
    2   2.26852  -0.15651    5    8   7.03480
#
# LOCAL POTENTIAL
# lloc, lpopt,  rc(5),   dvloc0
    4    5   1.64387      0.00000
#
# VANDERBILT-KLEINMAN-BYLANDER PROJECTORs
# l, nproj, debl
    0    2   2.13758
    1    2   2.12460
    2    2   1.17895
#
# MODEL CORE CHARGE
# icmod, fcfact
    0   0.00000
#
# LOG DERIVATIVE ANALYSIS
# epsh1, epsh2, depsh
   -5.00    3.00    0.02
#
# OUTPUT GRID
# rlmax, drl
    6.00    0.01
#
# TEST CONFIGURATIONS
# ncnf
    0
# nvcnf
#   n    l    f
    </PP_INPUTFILE>
  </PP_INFO>
  <!--                               -->
  <!-- END OF HUMAN READABLE SECTION -->
  <!--                               -->
    <PP_HEADER
       generated="Generated using ONCVPSP code by D. R. Hamann"
       author="Martin Schlipf and Francois Gygi"
       date="150105"
       comment=""
       element="Ti"
       pseudo_type="NC"
       relativistic="scalar"
       is_ultrasoft="F"
       is_paw="F"
       is_coulomb="F"
       has_so="F"
       has_wfc="F"
       has_gipaw="F"
       core_correction="F"
       functional="PBE"
       z_valence="   12.00"
       total_psenergy="  -5.74469282649E+01"
       rho_cutoff="   6.01000000000E+00"
       l_max="2"
       l_local="-1"
       mesh_size="   602"
       number_of_wfc="0"
       number_of_proj="6"/>
 <PP_MESH>
   <PP_R type="real"  size=" 602" columns="8">
    0.0000    0.0100    0.0200    0.0300    0.0400    0.0500    0.0600    0.0700
    0.0800    0.0900    0.1000    0.1100    0.1200    0.1300    0.1400    0.1500
    0.1600    0.1700    0.1800    0.1900    0.2000    0.2100    0.2200    0.2300
    0.2400    0.2500    0.2600    0.2700    0.2800    0.2900    0.3000    0.3100
    0.3200    0.3300    0.3400    0.3500    0.3600    0.3700    0.3800    0.3900
    0.4000    0.4100    0.4200    0.4300    0.4400    0.4500    0.4600    0.4700
    0.4800    0.4900    0.5000    0.5100    0.5200    0.5300    0.5400    0.5500
    0.5600    0.5700    0.5800    0.5900    0.6000    0.6100    0.6200    0.6300
    0.6400    0.6500    0.6600    0.6700    0.6800    0.6900    0.7000    0.7100
    0.7200    0.7300    0.7400    0.7500    0.7600    0.7700    0.7800    0.7900
    0.8000    0.8100    0.8200    0.8300    0.8400    0.8500    0.8600    0.8700
    0.8800    0.8900    0.9000    0.9100    0.9200    0.9300    0.9400    0.9500
    0.9600    0.9700    0.9800    0.9900    1.0000    1.0100    1.0200    1.0300
    1.0400    1.0500    1.0600    1.0700    1.0800    1.0900    1.1000    1.1100
    1.1200    1.1300    1.1400    1.1500    1.1600    1.1700    1.1800    1.1900
    1.2000    1.2100    1.2200    1.2300    1.2400    1.2500    1.2600    1.2700
    1.2800    1.2900    1.3000    1.3100    1.3200    1.3300    1.3400    1.3500
    1.3600    1.3700    1.3800    1.3900    1.4000    1.4100    1.4200    1.4300
    1.4400    1.4500    1.4600    1.4700    1.4800    1.4900    1.5000    1.5100
    1.5200    1.5300    1.5400    1.5500    1.5600    1.5700    1.5800    1.5900
    1.6000    1.6100    1.6200    1.6300    1.6400    1.6500    1.6600    1.6700
    1.6800    1.6900    1.7000    1.7100    1.7200    1.7300    1.7400    1.7500
    1.7600    1.7700    1.7800    1.7900    1.8000    1.8100    1.8200    1.8300
    1.8400    1.8500    1.8600    1.8700    1.8800    1.8900    1.9000    1.9100
    1.9200    1.9300    1.9400    1.9500    1.9600    1.9700    1.9800    1.9900
    2.0000    2.0100    2.0200    2.0300    2.0400    2.0500    2.0600    2.0700
    2.0800    2.0900    2.1000    2.1100    2.1200    2.1300    2.1400    2.1500
    2.1600    2.1700    2.1800    2.1900    2.2000    2.2100    2.2200    2.2300
    2.2400    2.2500    2.2600    2.2700    2.2800    2.2900    2.3000    2.3100
    2.3200    2.3300    2.3400    2.3500    2.3600    2.3700    2.3800    2.3900
    2.4000    2.4100    2.4200    2.4300    2.4400    2.4500    2.4600    2.4700
    2.4800    2.4900    2.5000    2.5100    2.5200    2.5300    2.5400    2.5500
    2.5600    2.5700    2.5800    2.5900    2.6000    2.6100    2.6200    2.6300
    2.6400    2.6500    2.6600    2.6700    2.6800    2.6900    2.7000    2.7100
    2.7200    2.7300    2.7400    2.7500    2.7600    2.7700    2.7800    2.7900
    2.8000    2.8100    2.8200    2.8300    2.8400    2.8500    2.8600    2.8700
    2.8800    2.8900    2.9000    2.9100    2.9200    2.9300    2.9400    2.9500
    2.9600    2.9700    2.9800    2.9900    3.0000    3.0100    3.0200    3.0300
    3.0400    3.0500    3.0600    3.0700    3.0800    3.0900    3.1000    3.1100
    3.1200    3.1300    3.1400    3.1500    3.1600    3.1700    3.1800    3.1900
    3.2000    3.2100    3.2200    3.2300    3.2400    3.2500    3.2600    3.2700
    3.2800    3.2900    3.3000    3.3100    3.3200    3.3300    3.3400    3.3500
    3.3600    3.3700    3.3800    3.3900    3.4000    3.4100    3.4200    3.4300
    3.4400    3.4500    3.4600    3.4700    3.4800    3.4900    3.5000    3.5100
    3.5200    3.5300    3.5400    3.5500    3.5600    3.5700    3.5800    3.5900
    3.6000    3.6100    3.6200    3.6300    3.6400    3.6500    3.6600    3.6700
    3.6800    3.6900    3.7000    3.7100    3.7200    3.7300    3.7400    3.7500
    3.7600    3.7700    3.7800    3.7900    3.8000    3.8100    3.8200    3.8300
    3.8400    3.8500    3.8600    3.8700    3.8800    3.8900    3.9000    3.9100
    3.9200    3.9300    3.9400    3.9500    3.9600    3.9700    3.9800    3.9900
    4.0000    4.0100    4.0200    4.0300    4.0400    4.0500    4.0600    4.0700
    4.0800    4.0900    4.1000    4.1100    4.1200    4.1300    4.1400    4.1500
    4.1600    4.1700    4.1800    4.1900    4.2000    4.2100    4.2200    4.2300
    4.2400    4.2500    4.2600    4.2700    4.2800    4.2900    4.3000    4.3100
    4.3200    4.3300    4.3400    4.3500    4.3600    4.3700    4.3800    4.3900
    4.4000    4.4100    4.4200    4.4300    4.4400    4.4500    4.4600    4.4700
    4.4800    4.4900    4.5000    4.5100    4.5200    4.5300    4.5400    4.5500
    4.5600    4.5700    4.5800    4.5900    4.6000    4.6100    4.6200    4.6300
    4.6400    4.6500    4.6600    4.6700    4.6800    4.6900    4.7000    4.7100
    4.7200    4.7300    4.7400    4.7500    4.7600    4.7700    4.7800    4.7900
    4.8000    4.8100    4.8200    4.8300    4.8400    4.8500    4.8600    4.8700
    4.8800    4.8900    4.9000    4.9100    4.9200    4.9300    4.9400    4.9500
    4.9600    4.9700    4.9800    4.9900    5.0000    5.0100    5.0200    5.0300
    5.0400    5.0500    5.0600    5.0700    5.0800    5.0900    5.1000    5.1100
    5.1200    5.1300    5.1400    5.1500    5.1600    5.1700    5.1800    5.1900
    5.2000    5.2100    5.2200    5.2300    5.2400    5.2500    5.2600    5.2700
    5.2800    5.2900    5.3000    5.3100    5.3200    5.3300    5.3400    5.3500
    5.3600    5.3700    5.3800    5.3900    5.4000    5.4100    5.4200    5.4300
    5.4400    5.4500    5.4600    5.4700    5.4800    5.4900    5.5000    5.5100
    5.5200    5.5300    5.5400    5.5500    5.5600    5.5700    5.5800    5.5900
    5.6000    5.6100    5.6200    5.6300    5.6400    5.6500    5.6600    5.6700
    5.6800    5.6900    5.7000    5.7100    5.7200    5.7300    5.7400    5.7500
    5.7600    5.7700    5.7800    5.7900    5.8000    5.8100    5.8200    5.8300
    5.8400    5.8500    5.8600    5.8700    5.8800    5.8900    5.9000    5.9100
    5.9200    5.9300    5.9400    5.9500    5.9600    5.9700    5.9800    5.9900
    6.0000    6.0100
   </PP_R>
   <PP_RAB type="real"  size=" 602" columns="8">
    0.0100    0.0100    0.0100    0.0100    0.0100    0.0100    0.0100    0.0100
    0.0100    0.0100    0.0100    0.0100    0.0100    0.0100    0.0100    0.0100
    0.0100    0.0100    0.0100    0.0100    0.0100    0.0100    0.0100    0.0100
    0.0100    0.0100    0.0100    0.0100    0.0100    0.0100    0.0100    0.0100
    0.0100    0.0100    0.0100    0.0100    0.0100    0.0100    0.0100    0.0100
    0.0100    0.0100    0.0100    0.0100    0.0100    0.0100    0.0100    0.0100
    0.0100    0.0100    0.0100    0.0100    0.0100    0.0100    0.0100    0.0100
    0.0100    0.0100    0.0100    0.0100    0.0100    0.0100    0.0100    0.0100
    0.0100    0.0100    0.0100    0.0100    0.0100    0.0100    0.0100    0.0100
    0.0100    0.0100    0.0100    0.0100    0.0100    0.0100    0.0100    0.0100
    0.0100    0.0100    0.0100    0.0100    0.0100    0.0100    0.0100    0.0100
    0.0100    0.0100    0.0100    0.0100    0.0100    0.0100    0.0100    0.0100
    0.0100    0.0100    0.0100    0.0100    0.0100    0.0100    0.0100    0.0100
    0.0100    0.0100    0.0100    0.0100    0.0100    0.0100    0.0100    0.0100
    0.0100    0.0100    0.0100    0.0100    0.0100    0.0100    0.0100    0.0100
    0.0100    0.0100    0.0100    0.0100    0.0100    0.0100    0.0100    0.0100
    0.0100    0.0100    0.0100    0.0100    0.0100    0.0100    0.0100    0.0100
    0.0100    0.0100    0.0100    0.0100    0.0100    0.0100    0.0100    0.0100
    0.0100    0.0100    0.0100    0.0100    0.0100    0.0100    0.0100    0.0100
    0.0100    0.0100    0.0100    0.0100    0.0100    0.0100    0.0100    0.0100
    0.0100    0.0100    0.0100    0.0100    0.0100    0.0100    0.0100    0.0100
    0.0100    0.0100    0.0100    0.0100    0.0100    0.0100    0.0100    0.0100
    0.0100    0.0100    0.0100    0.0100    0.0100    0.0100    0.0100    0.0100
    0.0100    0.0100    0.0100    0.0100    0.0100    0.0100    0.0100    0.0100
    0.0100    0.0100    0.0100    0.0100    0.0100    0.0100    0.0100    0.0100
    0.0100    0.0100    0.0100    0.0100    0.0100    0.0100    0.0100    0.0100
    0.0100    0.0100    0.0100    0.0100    0.0100    0.0100    0.0100    0.0100
    0.0100    0.0100    0.0100    0.0100    0.0100    0.0100    0.0100    0.0100
    0.0100    0.0100    0.0100    0.0100    0.0100    0.0100    0.0100    0.0100
    0.0100    0.0100    0.0100    0.0100    0.0100    0.0100    0.0100    0.0100
    0.0100    0.0100    0.0100    0.0100    0.0100    0.0100    0.0100    0.0100
    0.0100    0.0100    0.0100    0.0100    0.0100    0.0100    0.0100    0.0100
    0.0100    0.0100    0.0100    0.0100    0.0100    0.0100    0.0100    0.0100
    0.0100    0.0100    0.0100    0.0100    0.0100    0.0100    0.0100    0.0100
    0.0100    0.0100    0.0100    0.0100    0.0100    0.0100    0.0100    0.0100
    0.0100    0.0100    0.0100    0.0100    0.0100    0.0100    0.0100    0.0100
    0.0100    0.0100    0.0100    0.0100    0.0100    0.0100    0.0100    0.0100
    0.0100    0.0100    0.0100    0.0100    0.0100    0.0100    0.0100    0.0100
    0.0100    0.0100    0.0100    0.0100    0.0100    0.0100    0.0100    0.0100
    0.0100    0.0100    0.0100    0.0100    0.0100    0.0100    0.0100    0.0100
    0.0100    0.0100    0.0100    0.0100    0.0100    0.0100    0.0100    0.0100
    0.0100    0.0100    0.0100    0.0100    0.0100    0.0100    0.0100    0.0100
    0.0100    0.0100    0.0100    0.0100    0.0100    0.0100    0.0100    0.0100
    0.0100    0.0100    0.0100    0.0100    0.0100    0.0100    0.0100    0.0100
    0.0100    0.0100    0.0100    0.0100    0.0100    0.0100    0.0100    0.0100
    0.0100    0.0100    0.0100    0.0100    0.0100    0.0100    0.0100    0.0100
    0.0100    0.0100    0.0100    0.0100    0.0100    0.0100    0.0100    0.0100
    0.0100    0.0100    0.0100    0.0100    0.0100    0.0100    0.0100    0.0100
    0.0100    0.0100    0.0100    0.0100    0.0100    0.0100    0.0100    0.0100
    0.0100    0.0100    0.0100    0.0100    0.0100    0.0100    0.0100    0.0100
    0.0100    0.0100    0.0100    0.0100    0.0100    0.0100    0.0100    0.0100
    0.0100    0.0100    0.0100    0.0100    0.0100    0.0100    0.0100    0.0100
    0.0100    0.0100    0.0100    0.0100    0.0100    0.0100    0.0100    0.0100
    0.0100    0.0100    0.0100    0.0100    0.0100    0.0100    0.0100    0.0100
    0.0100    0.0100    0.0100    0.0100    0.0100    0.0100    0.0100    0.0100
    0.0100    0.0100    0.0100    0.0100    0.0100    0.0100    0.0100    0.0100
    0.0100    0.0100    0.0100    0.0100    0.0100    0.0100    0.0100    0.0100
    0.0100    0.0100    0.0100    0.0100    0.0100    0.0100    0.0100    0.0100
    0.0100    0.0100    0.0100    0.0100    0.0100    0.0100    0.0100    0.0100
    0.0100    0.0100    0.0100    0.0100    0.0100    0.0100    0.0100    0.0100
    0.0100    0.0100    0.0100    0.0100    0.0100    0.0100    0.0100    0.0100
    0.0100    0.0100    0.0100    0.0100    0.0100    0.0100    0.0100    0.0100
    0.0100    0.0100    0.0100    0.0100    0.0100    0.0100    0.0100    0.0100
    0.0100    0.0100    0.0100    0.0100    0.0100    0.0100    0.0100    0.0100
    0.0100    0.0100    0.0100    0.0100    0.0100    0.0100    0.0100    0.0100
    0.0100    0.0100    0.0100    0.0100    0.0100    0.0100    0.0100    0.0100
    0.0100    0.0100    0.0100    0.0100    0.0100    0.0100    0.0100    0.0100
    0.0100    0.0100    0.0100    0.0100    0.0100    0.0100    0.0100    0.0100
    0.0100    0.0100    0.0100    0.0100    0.0100    0.0100    0.0100    0.0100
    0.0100    0.0100    0.0100    0.0100    0.0100    0.0100    0.0100    0.0100
    0.0100    0.0100    0.0100    0.0100    0.0100    0.0100    0.0100    0.0100
    0.0100    0.0100    0.0100    0.0100    0.0100    0.0100    0.0100    0.0100
    0.0100    0.0100    0.0100    0.0100    0.0100    0.0100    0.0100    0.0100
    0.0100    0.0100    0.0100    0.0100    0.0100    0.0100    0.0100    0.0100
    0.0100    0.0100    0.0100    0.0100    0.0100    0.0100    0.0100    0.0100
    0.0100    0.0100
   </PP_RAB>
 </PP_MESH>
  <PP_LOCAL type="real"  size=" 602" columns="4">
   -3.2573929488E+01   -3.2574258756E+01   -3.2575785480E+01   -3.2577809246E+01
   -3.2579629642E+01   -3.2580407946E+01   -3.2579270100E+01   -3.2575398046E+01
   -3.2568096959E+01   -3.2556833663E+01   -3.2541248172E+01   -3.2521144415E+01
   -3.2496467673E+01   -3.2467275703E+01   -3.2433708901E+01   -3.2395963016E+01
   -3.2354266228E+01   -3.2308861164E+01   -3.2259991658E+01   -3.2207893605E+01
   -3.2152789123E+01   -3.2094883232E+01   -3.2034362349E+01   -3.1971394031E+01
   -3.1906127520E+01   -3.1838694747E+01   -3.1769211602E+01   -3.1697779267E+01
   -3.1624485555E+01   -3.1549406168E+01   -3.1472605854E+01   -3.1394139460E+01
   -3.1314052867E+01   -3.1232383818E+01   -3.1149162653E+01   -3.1064412984E+01
   -3.0978152262E+01   -3.0890392329E+01   -3.0801139922E+01   -3.0710397109E+01
   -3.0618161754E+01   -3.0524427944E+01   -3.0429186416E+01   -3.0332424979E+01
   -3.0234128959E+01   -3.0134281639E+01   -3.0032864722E+01   -2.9929858805E+01
   -2.9825243865E+01   -2.9718999759E+01   -2.9611106734E+01   -2.9501545935E+01
   -2.9390299903E+01   -2.9277353107E+01   -2.9162692363E+01   -2.9046307365E+01
   -2.8928191030E+01   -2.8808339934E+01   -2.8686754591E+01   -2.8563439793E+01
   -2.8438404693E+01   -2.8311663162E+01   -2.8183233598E+01   -2.8053139194E+01
   -2.7921407761E+01   -2.7788071539E+01   -2.7653167222E+01   -2.7516735618E+01
   -2.7378821372E+01   -2.7239472644E+01   -2.7098740954E+01   -2.6956680657E+01
   -2.6813348645E+01   -2.6668803991E+01   -2.6523107584E+01   -2.6376321815E+01
   -2.6228510221E+01   -2.6079737168E+01   -2.5930067573E+01   -2.5779566635E+01
   -2.5628299600E+01   -2.5476331549E+01   -2.5323727208E+01   -2.5170550793E+01
   -2.5016865866E+01   -2.4862735226E+01   -2.4708220812E+01   -2.4553383623E+01
   -2.4398283665E+01   -2.4242979898E+01   -2.4087530201E+01   -2.3931991349E+01
   -2.3776418995E+01   -2.3620867653E+01   -2.3465390698E+01   -2.3310040355E+01
   -2.3154867733E+01   -2.2999922741E+01   -2.2845254140E+01   -2.2690909546E+01
   -2.2536935418E+01   -2.2383377053E+01   -2.2230278587E+01   -2.2077683055E+01
   -2.1925632157E+01   -2.1774166462E+01   -2.1623325336E+01   -2.1473146925E+01
   -2.1323668267E+01   -2.1174924896E+01   -2.1026951174E+01   -2.0879780181E+01
   -2.0733443819E+01   -2.0587972478E+01   -2.0443395177E+01   -2.0299739637E+01
   -2.0157032413E+01   -2.0015298305E+01   -1.9874560787E+01   -1.9734842071E+01
   -1.9596162996E+01   -1.9458542596E+01   -1.9321998705E+01   -1.9186548107E+01
   -1.9052205447E+01   -1.8918984314E+01   -1.8786897307E+01   -1.8655954984E+01
   -1.8526166845E+01   -1.8397541569E+01   -1.8270085809E+01   -1.8143805417E+01
   -1.8018705443E+01   -1.7894789097E+01   -1.7772059146E+01   -1.7650517331E+01
   -1.7530164145E+01   -1.7410999817E+01   -1.7293023349E+01   -1.7176233243E+01
   -1.7060627605E+01   -1.6946203553E+01   -1.6832958177E+01   -1.6720887842E+01
   -1.6609988653E+01   -1.6500256488E+01   -1.6391686703E+01   -1.6284274699E+01
   -1.6178015350E+01   -1.6072903514E+01   -1.5968933738E+01   -1.5866100293E+01
   -1.5764397381E+01   -1.5663818588E+01   -1.5564357699E+01   -1.5466007477E+01
   -1.5368760986E+01   -1.5272610121E+01   -1.5177546863E+01   -1.5083562069E+01
   -1.4990646287E+01   -1.4898789094E+01   -1.4807979246E+01   -1.4718204718E+01
   -1.4629452209E+01   -1.4541707455E+01   -1.4454955965E+01   -1.4369182687E+01
   -1.4284373402E+01   -1.4200513948E+01   -1.4117590638E+01   -1.4035589869E+01
   -1.3954498320E+01   -1.3874302752E+01   -1.3794990086E+01   -1.3716547329E+01
   -1.3638961578E+01   -1.3562220026E+01   -1.3486309914E+01   -1.3411218633E+01
   -1.3336933561E+01   -1.3263442366E+01   -1.3190732556E+01   -1.3118792221E+01
   -1.3047609008E+01   -1.2977171505E+01   -1.2907467755E+01   -1.2838486725E+01
   -1.2770217104E+01   -1.2702648186E+01   -1.2635769526E+01   -1.2569570674E+01
   -1.2504042220E+01   -1.2439173931E+01   -1.2374957302E+01   -1.2311382882E+01
   -1.2248442436E+01   -1.2186127603E+01   -1.2124430243E+01   -1.2063343017E+01
   -1.2002857921E+01   -1.1942968230E+01   -1.1883666602E+01   -1.1824946256E+01
   -1.1766800516E+01   -1.1709222592E+01   -1.1652206075E+01   -1.1595744390E+01
   -1.1539831041E+01   -1.1484459559E+01   -1.1429623438E+01   -1.1375316013E+01
   -1.1321530817E+01   -1.1268260999E+01   -1.1215499803E+01   -1.1163240471E+01
   -1.1111475896E+01   -1.1060199198E+01   -1.1009403264E+01   -1.0959080954E+01
   -1.0909225163E+01   -1.0859828825E+01   -1.0810884736E+01   -1.0762385922E+01
   -1.0714325641E+01   -1.0666696627E+01   -1.0619492705E+01   -1.0572707437E+01
   -1.0526334038E+01   -1.0480367254E+01   -1.0434801014E+01   -1.0389629629E+01
   -1.0344848104E+01   -1.0300450786E+01   -1.0256432778E+01   -1.0212789327E+01
   -1.0169515129E+01   -1.0126605914E+01   -1.0084057172E+01   -1.0041864164E+01
   -1.0000022745E+01   -9.9585284964E+00   -9.9173769482E+00   -9.8765641609E+00
   -9.8360859070E+00   -9.7959380088E+00   -9.7561166501E+00   -9.7166177677E+00
   -9.6774374028E+00   -9.6385718716E+00   -9.6000172396E+00   -9.5617697366E+00
   -9.5238258852E+00   -9.4861819375E+00   -9.4488343128E+00   -9.4117797162E+00
   -9.3750146123E+00   -9.3385355761E+00   -9.3023394359E+00   -9.2664228067E+00
   -9.2307823680E+00   -9.1954151376E+00   -9.1603179193E+00   -9.1254874921E+00
   -9.0909210291E+00   -9.0566155123E+00   -9.0225677878E+00   -8.9887751922E+00
   -8.9552348696E+00   -8.9219437727E+00   -8.8888993389E+00   -8.8560988643E+00
   -8.8235394779E+00   -8.7912186267E+00   -8.7591337807E+00   -8.7272822495E+00
   -8.6956614676E+00   -8.6642690767E+00   -8.6331025704E+00   -8.6021593540E+00
   -8.5714372352E+00   -8.5409338546E+00   -8.5106466940E+00   -8.4805736031E+00
   -8.4507123702E+00   -8.4210606584E+00   -8.3916162413E+00   -8.3623770835E+00
   -8.3333410351E+00   -8.3045057827E+00   -8.2758694570E+00   -8.2474300133E+00
   -8.2191853000E+00   -8.1911333516E+00   -8.1632722994E+00   -8.1356001804E+00
   -8.1081149034E+00   -8.0808147709E+00   -8.0536979243E+00   -8.0267624094E+00
   -8.0000064248E+00   -7.9734282824E+00   -7.9470262100E+00   -7.9207982769E+00
   -7.8947429393E+00   -7.8688585161E+00   -7.8431432611E+00   -7.8175954537E+00
   -7.7922135961E+00   -7.7669960778E+00   -7.7419411789E+00   -7.7170473892E+00
   -7.6923132304E+00   -7.6677371668E+00   -7.6433175149E+00   -7.6190529454E+00
   -7.5949420028E+00   -7.5709831920E+00   -7.5471749673E+00   -7.5235160577E+00
   -7.5000050675E+00   -7.4766405394E+00   -7.4534210695E+00   -7.4303454208E+00
   -7.4074122628E+00   -7.3846201821E+00   -7.3619678934E+00   -7.3394541977E+00
   -7.3170778263E+00   -7.2948374147E+00   -7.2727317748E+00   -7.2507597494E+00
   -7.2289201290E+00   -7.2072116023E+00   -7.1856330576E+00   -7.1641833844E+00
   -7.1428614294E+00   -7.1216659384E+00   -7.1005958570E+00   -7.0796501256E+00
   -7.0588276447E+00   -7.0381272207E+00   -7.0175478386E+00   -6.9970884938E+00
   -6.9767481382E+00   -6.9565256422E+00   -6.9364200133E+00   -6.9164303060E+00
   -6.8965555209E+00   -6.8767945962E+00   -6.8571465461E+00   -6.8376104874E+00
   -6.8181854673E+00   -6.7988704953E+00   -6.7796645778E+00   -6.7605668965E+00
   -6.7415765431E+00   -6.7226926019E+00   -6.7039140587E+00   -6.6852401617E+00
   -6.6666700448E+00   -6.6482028419E+00   -6.6298375932E+00   -6.6115735283E+00
   -6.5934098496E+00   -6.5753457313E+00   -6.5573802949E+00   -6.5395127161E+00
   -6.5217422750E+00   -6.5040681842E+00   -6.4864896504E+00   -6.4690057859E+00
   -6.4516159477E+00   -6.4343193850E+00   -6.4171153473E+00   -6.4000030141E+00
   -6.3829816804E+00   -6.3660506754E+00   -6.3492092835E+00   -6.3324567756E+00
   -6.3157923566E+00   -6.2992154404E+00   -6.2827253446E+00   -6.2663213869E+00
   -6.2500028225E+00   -6.2337690020E+00   -6.2176193221E+00   -6.2015531322E+00
   -6.1855697817E+00   -6.1696685194E+00   -6.1538488212E+00   -6.1381100699E+00
   -6.1224516455E+00   -6.1068728946E+00   -6.0913731677E+00   -6.0759519444E+00
   -6.0606086333E+00   -6.0453426432E+00   -6.0301533215E+00   -6.0150401133E+00
   -6.0000024957E+00   -5.9850399049E+00   -5.9701517771E+00   -5.9553374670E+00
   -5.9405964970E+00   -5.9259283464E+00   -5.9113324776E+00   -5.8968083525E+00
   -5.8823553405E+00   -5.8679730227E+00   -5.8536608865E+00   -5.8394184195E+00
   -5.8252450974E+00   -5.8111403406E+00   -5.7971037421E+00   -5.7831348130E+00
   -5.7692330650E+00   -5.7553979925E+00   -5.7416290529E+00   -5.7279258549E+00
   -5.7142879329E+00   -5.7007148208E+00   -5.6872060367E+00   -5.6737610614E+00
   -5.6603795238E+00   -5.6470609798E+00   -5.6338049855E+00   -5.6206110860E+00
   -5.6074787735E+00   -5.5944077009E+00   -5.5813974447E+00   -5.5684475816E+00
   -5.5555576882E+00   -5.5427272572E+00   -5.5299559677E+00   -5.5172434165E+00
   -5.5045892000E+00   -5.4919929145E+00   -5.4794540887E+00   -5.4669723851E+00
   -5.4545474351E+00   -5.4421788538E+00   -5.4298662562E+00   -5.4176092111E+00
   -5.4054073538E+00   -5.3932603533E+00   -5.3811678426E+00   -5.3691294549E+00
   -5.3571448026E+00   -5.3452134839E+00   -5.3333352084E+00   -5.3215096263E+00
   -5.3097363876E+00   -5.2980151426E+00   -5.2863454731E+00   -5.2747271022E+00
   -5.2631597058E+00   -5.2516429502E+00   -5.2401765019E+00   -5.2287599932E+00
   -5.2173930887E+00   -5.2060755130E+00   -5.1948069481E+00   -5.1835870759E+00
   -5.1724155786E+00   -5.1612920687E+00   -5.1502163068E+00   -5.1391879940E+00
   -5.1282068273E+00   -5.1172725035E+00   -5.1063846918E+00   -5.0955430758E+00
   -5.0847474122E+00   -5.0739974119E+00   -5.0632927858E+00   -5.0526332448E+00
   -5.0420184476E+00   -5.0314481482E+00   -5.0209220898E+00   -5.0104399969E+00
   -5.0000015940E+00   -4.9896066029E+00   -4.9792546847E+00   -4.9689456426E+00
   -4.9586792139E+00   -4.9484551358E+00   -4.9382731455E+00   -4.9281329623E+00
   -4.9180342946E+00   -4.9079769416E+00   -4.8979606529E+00   -4.8879851780E+00
   -4.8780502663E+00   -4.8681556392E+00   -4.8583010405E+00   -4.8484862699E+00
   -4.8387110885E+00   -4.8289752575E+00   -4.8192785380E+00   -4.8096206579E+00
   -4.8000013853E+00   -4.7904205243E+00   -4.7808778472E+00   -4.7713731263E+00
   -4.7619061338E+00   -4.7524766084E+00   -4.7430843315E+00   -4.7337291159E+00
   -4.7244107445E+00   -4.7151290002E+00   -4.7058836659E+00   -4.6966744950E+00
   -4.6875012719E+00   -4.6783638223E+00   -4.6692619391E+00   -4.6601954153E+00
   -4.6511640440E+00   -4.6421675969E+00   -4.6332058521E+00   -4.6242786517E+00
   -4.6153857982E+00   -4.6065270943E+00   -4.5977023427E+00   -4.5889113371E+00
   -4.5801538406E+00   -4.5714297146E+00   -4.5627387711E+00   -4.5540808220E+00
   -4.5454556790E+00   -4.5368631540E+00   -4.5283030089E+00   -4.5197751056E+00
   -4.5112792722E+00   -4.5028153293E+00   -4.4943830973E+00   -4.4859823971E+00
   -4.4776130195E+00   -4.4692747921E+00   -4.4609675709E+00   -4.4526911848E+00
   -4.4444454626E+00   -4.4362302336E+00   -4.4280453209E+00   -4.4198905110E+00
   -4.4117656896E+00   -4.4036706937E+00   -4.3956053602E+00   -4.3875695261E+00
   -4.3795630283E+00   -4.3715856716E+00   -4.3636373078E+00   -4.3557178032E+00
   -4.3478270021E+00   -4.3399647493E+00   -4.3321308892E+00   -4.3243252656E+00
   -4.3165476729E+00   -4.3087980138E+00   -4.3010761400E+00   -4.2933819034E+00
   -4.2857151557E+00   -4.2780757487E+00   -4.2704635158E+00   -4.2628782966E+00
   -4.2553199827E+00   -4.2477884327E+00   -4.2402835054E+00   -4.2328050595E+00
   -4.2253529536E+00   -4.2179270155E+00   -4.2105271195E+00   -4.2031531501E+00
   -4.1958049726E+00   -4.1884824523E+00   -4.1811854543E+00   -4.1739138441E+00
   -4.1666674482E+00   -4.1594461653E+00   -4.1522498770E+00   -4.1450784550E+00
   -4.1379317707E+00   -4.1308096958E+00   -4.1237121017E+00   -4.1166388178E+00
   -4.1095897579E+00   -4.1025648047E+00   -4.0955638357E+00   -4.0885867286E+00
   -4.0816333608E+00   -4.0747036098E+00   -4.0677973113E+00   -4.0609143854E+00
   -4.0540547198E+00   -4.0472181976E+00   -4.0404047022E+00   -4.0336141167E+00
   -4.0268463244E+00   -4.0201011706E+00   -4.0133785735E+00   -4.0066784293E+00
   -4.0000006265E+00   -3.9933450539E+00
  </PP_LOCAL>
 <PP_NONLOCAL>
   <PP_BETA.1
       type="real"
       size=" 602"
       columns="4"
       index="1"
       angular_momentum="0"
       cutoff_radius_index=" 250"
       cutoff_radius="    2.4900000000E+00" >
    0.0000000000E+00    3.2956642087E-02    6.5909576218E-02    9.8854955726E-02
    1.3178865729E-01    1.6470614445E-01    1.9760233341E-01    2.3047146176E-01
    2.6330696093E-01    2.9610133300E-01    3.2884603262E-01    3.6153135470E-01
    3.9414632845E-01    4.2667861850E-01    4.5911443363E-01    4.9143844365E-01
    5.2363370505E-01    5.5568159579E-01    5.8756175988E-01    6.1925206193E-01
    6.5072855230E-01    6.8196544293E-01    7.1293509440E-01    7.4360801427E-01
    7.7395286704E-01    8.0393649567E-01    8.3352395506E-01    8.6267855727E-01
    8.9136192863E-01    9.1953407855E-01    9.4715348011E-01    9.7417716210E-01
    1.0005608121E+00    1.0262588909E+00    1.0512247582E+00    1.0754108059E+00
    1.0987686059E+00    1.1212490629E+00    1.1428025763E+00    1.1633792162E+00
    1.1829288987E+00    1.2014015737E+00    1.2187474165E+00    1.2349170266E+00
    1.2498616299E+00    1.2635332856E+00    1.2758850952E+00    1.2868714148E+00
    1.2964480605E+00    1.3045725382E+00    1.3112042449E+00    1.3163046740E+00
    1.3198376269E+00    1.3217694407E+00    1.3220691362E+00    1.3207086748E+00
    1.3176630922E+00    1.3129107158E+00    1.3064333095E+00    1.2982162687E+00
    1.2882487151E+00    1.2765237304E+00    1.2630383672E+00    1.2477938747E+00
    1.2307957496E+00    1.2120537882E+00    1.1915822475E+00    1.1693998507E+00
    1.1455298225E+00    1.1199999010E+00    1.0928424329E+00    1.0640942767E+00
    1.0337968046E+00    1.0019958600E+00    9.6874168940E-01    9.3408888657E-01
    8.9809627927E-01    8.6082681026E-01    8.2234741097E-01    7.8272885278E-01
    7.4204558134E-01    7.0037553455E-01    6.5779994477E-01    6.1440312570E-01
    5.7027224484E-01    5.2549708206E-01    4.8016977531E-01    4.3438455422E-01
    3.8823746254E-01    3.4182607054E-01    2.9524917836E-01    2.4860651152E-01
    2.0199840981E-01    1.5552551090E-01    1.0928843001E-01    6.3387437209E-02