<PP_INFO>
Generated using ld1 code (maybe, or maybe not)                                  
Author: unknown    Generation date: as well                                     
Info: automatically converted from PWSCF format                                 
    1        The Pseudo was generated with a Scalar-Relativistic Calculation
nl pn  l   occ               Rcut            Rcut US             E pseu
*S  0  0  2.00      0.00000000000      0.00000000000      0.00000000000
*P  0  1  0.00      0.00000000000      0.00000000000      0.00000000000
*D  0  2 10.00      0.00000000000      0.00000000000      0.00000000000
</PP_INFO>


<PP_HEADER>
   0                   Version Number
  Zn                   Element
   NC                  Norm - Conserving pseudopotential
    F                  Nonlinear Core Correction
SLA  PZ   NOGX NOGC    PZ   Exchange-Correlation functional
   12.00000000000      Z valence
    0.00000000000      Total energy
  0.0000000  0.0000000 Suggested cutoff for wfc and rho
    2                  Max angular momentum component
 1163                  Number of points in mesh
    3    2             Number of Wavefunctions, Number of Projectors
 Wavefunctions         nl  l   occ
                       *S  0  2.00
                       *P  1  0.00
                       *D  2 10.00
</PP_HEADER>


<PP_MESH>
  <PP_R>
  3.21829939971E-05  3.26041042048E-05  3.30307245837E-05  3.34629272337E-05
  3.39007851980E-05  3.43443724757E-05  3.47937640341E-05  3.52490358215E-05
  3.57102647798E-05  3.61775288578E-05  3.66509070243E-05  3.71304792813E-05
  3.76163266777E-05  3.81085313229E-05  3.86071764005E-05  3.91123461829E-05
  3.96241260448E-05  4.01426024783E-05  4.06678631072E-05  4.11999967018E-05
  4.17390931939E-05  4.22852436920E-05  4.28385404970E-05  4.33990771173E-05
  4.39669482849E-05  4.45422499715E-05  4.51250794042E-05  4.57155350828E-05
  4.63137167957E-05  4.69197256369E-05  4.75336640234E-05  4.81556357123E-05
  4.87857458182E-05  4.94241008313E-05  5.00708086350E-05  5.07259785246E-05
  5.13897212253E-05  5.20621489112E-05  5.27433752242E-05  5.34335152931E-05
  5.41326857533E-05  5.48410047662E-05  5.55585920394E-05  5.62855688470E-05
  5.70220580496E-05  5.77681841158E-05  5.85240731425E-05  5.92898528770E-05
  6.00656527376E-05  6.08516038366E-05  6.16478390014E-05  6.24544927978E-05
  6.32717015521E-05  6.40996033745E-05  6.49383381825E-05  6.57880477242E-05
  6.66488756025E-05  6.75209672994E-05  6.84044702005E-05  6.92995336199E-05
  7.02063088254E-05  7.11249490642E-05  7.20556095887E-05  7.29984476827E-05
  7.39536226881E-05  7.49212960318E-05  7.59016312528E-05  7.68947940301E-05
  7.79009522107E-05  7.89202758375E-05  7.99529371789E-05  8.09991107569E-05
  8.20589733774E-05  8.31327041597E-05  8.42204845669E-05  8.53224984365E-05
  8.64389320113E-05  8.75699739714E-05  8.87158154655E-05  8.98766501436E-05
  9.10526741895E-05  9.22440863540E-05  9.34510879887E-05  9.46738830796E-05
  9.59126782822E-05  9.71676829556E-05  9.84391091987E-05  9.97271718856E-05
  1.01032088702E-04  1.02354080182E-04  1.03693369745E-04  1.05050183734E-04
  1.06424751454E-04  1.07817305211E-04  1.09228080348E-04  1.10657315292E-04
  1.12105251585E-04  1.13572133932E-04  1.15058210240E-04  1.16563731660E-04
  1.18088952628E-04  1.19634130909E-04  1.21199527644E-04  1.22785407387E-04
  1.24392038157E-04  1.26019691477E-04  1.27668642424E-04  1.29339169677E-04
  1.31031555556E-04  1.32746086081E-04  1.34483051010E-04  1.36242743894E-04
  1.38025462127E-04  1.39831506991E-04  1.41661183713E-04  1.43514801512E-04
  1.45392673653E-04  1.47295117503E-04  1.49222454579E-04  1.51175010604E-04
  1.53153115566E-04  1.55157103769E-04  1.57187313891E-04  1.59244089044E-04
  1.61327776827E-04  1.63438729389E-04  1.65577303484E-04  1.67743860538E-04
  1.69938766703E-04  1.72162392925E-04  1.74415115001E-04  1.76697313646E-04
  1.79009374558E-04  1.81351688480E-04  1.83724651270E-04  1.86128663962E-04
  1.88564132842E-04  1.91031469509E-04  1.93531090949E-04  1.96063419604E-04
  1.98628883444E-04  2.01227916037E-04  2.03860956628E-04  2.06528450205E-04
  2.09230847582E-04  2.11968605470E-04  2.14742186557E-04  2.17552059585E-04
  2.20398699429E-04  2.23282587177E-04  2.26204210214E-04  2.29164062301E-04
  2.32162643660E-04  2.35200461058E-04  2.38278027894E-04  2.41395864283E-04
  2.44554497149E-04  2.47754460306E-04  2.50996294557E-04  2.54280547779E-04
  2.57607775019E-04  2.60978538586E-04  2.64393408147E-04  2.67852960824E-04
  2.71357781288E-04  2.74908461863E-04  2.78505602623E-04  2.82149811492E-04
  2.85841704351E-04  2.89581905138E-04  2.93371045957E-04  2.97209767180E-04
  3.01098717562E-04  3.05038554343E-04  3.09029943367E-04  3.13073559186E-04
  3.17170085182E-04  3.21320213677E-04  3.25524646053E-04  3.29784092869E-04
  3.34099273981E-04  3.38470918666E-04  3.42899765742E-04  3.47386563695E-04
  3.51932070803E-04  3.56537055269E-04  3.61202295346E-04  3.65928579471E-04
  3.70716706397E-04  3.75567485328E-04  3.80481736058E-04  3.85460289107E-04
  3.90503985863E-04  3.95613678721E-04  4.00790231233E-04  4.06034518248E-04
  4.11347426062E-04  4.16729852571E-04  4.22182707417E-04  4.27706912145E-04
  4.33303400359E-04  4.38973117880E-04  4.44717022902E-04  4.50536086159E-04
  4.56431291087E-04  4.62403633990E-04  4.68454124207E-04  4.74583784287E-04
  4.80793650155E-04  4.87084771295E-04  4.93458210920E-04  4.99915046158E-04
  5.06456368228E-04  5.13083282630E-04  5.19796909328E-04  5.26598382940E-04
  5.33488852933E-04  5.40469483811E-04  5.47541455319E-04  5.54705962636E-04
  5.61964216581E-04  5.69317443816E-04  5.76766887054E-04  5.84313805268E-04
  5.91959473907E-04  5.99705185105E-04  6.07552247907E-04  6.15501988485E-04
  6.23555750364E-04  6.31714894649E-04  6.39980800255E-04  6.48354864139E-04
  6.56838501538E-04  6.65433146208E-04  6.74140250663E-04  6.82961286425E-04
  6.91897744269E-04  7.00951134480E-04  7.10122987100E-04  7.19414852196E-04
  7.28828300113E-04  7.38364921748E-04  7.48026328812E-04  7.57814154107E-04
  7.67730051796E-04  7.77775697692E-04  7.87952789532E-04  7.98263047269E-04
  8.08708213361E-04  8.19290053066E-04  8.30010354739E-04  8.40870930138E-04
  8.51873614726E-04  8.63020267982E-04  8.74312773717E-04  8.85753040392E-04
  8.97343001439E-04  9.09084615589E-04  9.20979867203E-04  9.33030766607E-04
  9.45239350430E-04  9.57607681954E-04  9.70137851455E-04  9.82831976562E-04
  9.95692202612E-04  1.00872070301E-03  1.02191967962E-03  1.03529136308E-03
  1.04883801324E-03  1.06256191953E-03  1.07646540131E-03  1.09055080830E-03
  1.10482052097E-03  1.11927695095E-03  1.13392254139E-03  1.14875976744E-03
  1.16379113663E-03  1.17901918928E-03  1.19444649899E-03  1.21007567300E-03
  1.22590935267E-03  1.24195021395E-03  1.25820096777E-03  1.27466436054E-03
  1.29134317463E-03  1.30824022878E-03  1.32535837865E-03  1.34270051724E-03
  1.36026957541E-03  1.37806852238E-03  1.39610036621E-03  1.41436815432E-03
  1.43287497402E-03  1.45162395300E-03  1.47061825988E-03  1.48986110474E-03
  1.50935573968E-03  1.52910545934E-03  1.54911360145E-03  1.56938354745E-03
  1.58991872301E-03  1.61072259861E-03  1.63179869017E-03  1.65315055959E-03
  1.67478181538E-03  1.69669611329E-03  1.71889715689E-03  1.74138869819E-03
  1.76417453833E-03  1.78725852816E-03  1.81064456894E-03  1.83433661296E-03
  1.85833866423E-03  1.88265477916E-03  1.90728906723E-03  1.93224569170E-03
  1.95752887028E-03  1.98314287590E-03  2.00909203739E-03  2.03538074021E-03
  2.06201342722E-03  2.08899459941E-03  2.11632881666E-03  2.14402069851E-03
  2.17207492497E-03  2.20049623726E-03  2.22928943865E-03  2.25845939526E-03
  2.28801103689E-03  2.31794935782E-03  2.34827941772E-03  2.37900634242E-03
  2.41013532486E-03  2.44167162590E-03  2.47362057527E-03  2.50598757239E-03
  2.53877808738E-03  2.57199766191E-03  2.60565191017E-03  2.63974651980E-03
  2.67428725287E-03  2.70927994686E-03  2.74473051560E-03  2.78064495034E-03
  2.81702932069E-03  2.85388977570E-03  2.89123254487E-03  2.92906393923E-03
  2.96739035236E-03  3.00621826153E-03  3.04555422873E-03  3.08540490185E-03
  3.12577701575E-03  3.16667739339E-03  3.20811294706E-03  3.25009067944E-03
  3.29261768489E-03  3.33570115057E-03  3.37934835767E-03  3.42356668270E-03
  3.46836359864E-03  3.51374667628E-03  3.55972358548E-03  3.60630209643E-03
  3.65349008102E-03  3.70129551413E-03  3.74972647499E-03  3.79879114855E-03
  3.84849782686E-03  3.89885491046E-03  3.94987090982E-03  4.00155444676E-03
  4.05391425593E-03  4.10695918626E-03  4.16069820246E-03  4.21514038656E-03
  4.27029493942E-03  4.32617118229E-03  4.38277855839E-03  4.44012663449E-03
  4.49822510257E-03  4.55708378139E-03  4.61671261822E-03  4.67712169046E-03
  4.73832120741E-03  4.80032151192E-03  4.86313308218E-03  4.92676653352E-03
  4.99123262012E-03  5.05654223692E-03  5.12270642139E-03  5.18973635543E-03
  5.25764336728E-03  5.32643893336E-03  5.39613468031E-03  5.46674238685E-03
  5.53827398588E-03  5.61074156638E-03  5.68415737557E-03  5.75853382088E-03
  5.83388347212E-03  5.91021906354E-03  5.98755349605E-03  6.06589983936E-03
  6.14527133418E-03  6.22568139447E-03  6.30714360974E-03  6.38967174730E-03
  6.47327975458E-03  6.55798176156E-03  6.64379208305E-03  6.73072522123E-03
  6.81879586798E-03  6.90801890747E-03  6.99840941859E-03  7.08998267756E-03
  7.18275416048E-03  7.27673954595E-03  7.37195471772E-03  7.46841576738E-03
  7.56613899709E-03  7.66514092229E-03  7.76543827455E-03  7.86704800437E-03
  7.96998728402E-03  8.07427351049E-03  8.17992430840E-03  8.28695753299E-03
  8.39539127312E-03  8.50524385437E-03  8.61653384206E-03  8.72928004449E-03
  8.84350151602E-03  8.95921756035E-03  9.07644773378E-03  9.19521184847E-03
  9.31552997585E-03  9.43742244997E-03  9.56090987095E-03  9.68601310845E-03
  9.81275330522E-03  9.94115188065E-03  1.00712305344E-02  1.02030112501E-02
  1.03365162990E-02  1.04717682437E-02  1.06087899422E-02  1.07476045515E-02
  1.08882355314E-02  1.10307066492E-02  1.11750419825E-02  1.13212659246E-02
  1.14694031876E-02  1.16194788070E-02  1.17715181460E-02  1.19255468995E-02
  1.20815910989E-02  1.22396771159E-02  1.23998316675E-02  1.25620818202E-02
  1.27264549946E-02  1.28929789701E-02  1.30616818898E-02  1.32325922649E-02
  1.34057389795E-02  1.35811512959E-02  1.37588588592E-02  1.39388917024E-02
  1.41212802514E-02  1.43060553305E-02  1.44932481669E-02  1.46828903968E-02
  1.48750140701E-02  1.50696516562E-02  1.52668360493E-02  1.54666005740E-02
  1.56689789910E-02  1.58740055027E-02  1.60817147592E-02  1.62921418638E-02
  1.65053223791E-02  1.67212923331E-02  1.69400882254E-02  1.71617470329E-02
  1.73863062165E-02  1.76138037272E-02  1.78442780126E-02  1.80777680236E-02
  1.83143132203E-02  1.85539535796E-02  1.87967296012E-02  1.90426823148E-02
  1.92918532871E-02  1.95442846285E-02  1.98000190005E-02  2.00590996228E-02
  2.03215702807E-02  2.05874753324E-02  2.08568597164E-02  2.11297689593E-02
  2.14062491835E-02  2.16863471147E-02  2.19701100903E-02  2.22575860667E-02
  2.25488236281E-02  2.28438719944E-02  2.31427810294E-02  2.34456012495E-02
  2.37523838321E-02  2.40631806240E-02  2.43780441507E-02  2.46970276249E-02
  2.50201849556E-02  2.53475707570E-02  2.56792403583E-02  2.60152498123E-02
  2.63556559054E-02  2.67005161671E-02  2.70498888796E-02  2.74038330877E-02
  2.77624086088E-02  2.81256760430E-02  2.84936967834E-02  2.88665330264E-02
  2.92442477822E-02  2.96269048855E-02  3.00145690062E-02  3.04073056605E-02
  3.08051812218E-02  3.12082629321E-02  3.16166189131E-02  3.20303181780E-02
  3.24494306428E-02  3.28740271387E-02  3.33041794234E-02  3.37399601936E-02
  3.41814430975E-02  3.46287027466E-02  3.50818147289E-02  3.55408556214E-02
  3.60059030030E-02  3.64770354680E-02  3.69543326388E-02  3.74378751797E-02
  3.79277448107E-02  3.84240243208E-02  3.89267975824E-02  3.94361495655E-02
  3.99521663518E-02  4.04749351492E-02  4.10045443071E-02  4.15410833305E-02
  4.20846428958E-02  4.26353148660E-02  4.31931923059E-02  4.37583694980E-02
  4.43309419588E-02  4.49110064543E-02  4.54986610167E-02  4.60940049612E-02
  4.66971389022E-02  4.73081647708E-02  4.79271858319E-02  4.85543067014E-02
  4.91896333643E-02  4.98332731924E-02  5.04853349622E-02  5.11459288738E-02
  5.18151665691E-02  5.24931611509E-02  5.31800272018E-02  5.38758808040E-02
  5.45808395582E-02  5.52950226042E-02  5.60185506406E-02  5.67515459454E-02
  5.74941323966E-02  5.82464354930E-02  5.90085823756E-02  5.97807018491E-02
  6.05629244034E-02  6.13553822362E-02  6.21582092746E-02  6.29715411982E-02
  6.37955154623E-02  6.46302713202E-02  6.54759498479E-02  6.63326939669E-02
  6.72006484691E-02  6.80799600408E-02  6.89707772878E-02  6.98732507603E-02
  7.07875329785E-02  7.17137784582E-02  7.26521437372E-02  7.36027874014E-02
  7.45658701119E-02  7.55415546319E-02  7.65300058544E-02  7.75313908301E-02
  7.85458787953E-02  7.95736412010E-02  8.06148517414E-02  8.16696863837E-02
  8.27383233974E-02  8.38209433846E-02  8.49177293107E-02  8.60288665353E-02
  8.71545428430E-02  8.82949484759E-02  8.94502761652E-02  9.06207211642E-02
  9.18064812807E-02  9.30077569110E-02  9.42247510736E-02  9.54576694434E-02
  9.67067203865E-02  9.79721149956E-02  9.92540671253E-02  1.00552793429E-01
  1.01868513393E-01  1.03201449379E-01  1.04551826656E-01  1.05919873440E-01
  1.07305820934E-01  1.08709903368E-01  1.10132358034E-01  1.11573425331E-01
  1.13033348803E-01  1.14512375179E-01  1.16010754419E-01  1.17528739753E-01
  1.19066587724E-01  1.20624558231E-01  1.22202914576E-01  1.23801923504E-01
  1.25421855252E-01  1.27062983592E-01  1.28725585879E-01  1.30409943096E-01
  1.32116339904E-01  1.33845064687E-01  1.35596409605E-01  1.37370670640E-01
  1.39168147644E-01  1.40989144397E-01  1.42833968650E-01  1.44702932185E-01
  1.46596350859E-01  1.48514544665E-01  1.50457837783E-01  1.52426558634E-01
  1.54421039936E-01  1.56441618761E-01  1.58488636592E-01  1.60562439380E-01
  1.62663377602E-01  1.64791806322E-01  1.66948085250E-01  1.69132578801E-01
  1.71345656161E-01  1.73587691345E-01  1.75859063261E-01  1.78160155778E-01
  1.80491357785E-01  1.82853063261E-01  1.85245671340E-01  1.87669586379E-01
  1.90125218024E-01  1.92612981284E-01  1.95133296596E-01  1.97686589899E-01
  2.00273292707E-01  2.02893842178E-01  2.05548681191E-01  2.08238258420E-01
  2.10963028411E-01  2.13723451655E-01  2.16519994672E-01  2.19353130083E-01
  2.22223336695E-01  2.25131099580E-01  2.28076910156E-01  2.31061266274E-01
  2.34084672295E-01  2.37147639183E-01  2.40250684586E-01  2.43394332927E-01
  2.46579115489E-01  2.49805570509E-01  2.53074243265E-01  2.56385686170E-01
  2.59740458867E-01  2.63139128319E-01  2.66582268910E-01  2.70070462540E-01
  2.73604298720E-01  2.77184374678E-01  2.80811295454E-01  2.84485674009E-01
  2.88208131319E-01  2.91979296489E-01  2.95799806855E-01  2.99670308093E-01
  3.03591454326E-01  3.07563908238E-01  3.11588341182E-01  3.15665433297E-01
  3.19795873622E-01  3.23980360210E-01  3.28219600251E-01  3.32514310185E-01
  3.36865215829E-01  3.41273052496E-01  3.45738565122E-01  3.50262508387E-01
  3.54845646851E-01  3.59488755073E-01  3.64192617750E-01  3.68958029847E-01
  3.73785796729E-01  3.78676734300E-01  3.83631669141E-01  3.88651438647E-01
  3.93736891170E-01  3.98888886166E-01  4.04108294333E-01  4.09395997763E-01
  4.14752890092E-01  4.20179876645E-01  4.25677874599E-01  4.31247813126E-01
  4.36890633560E-01  4.42607289551E-01  4.48398747227E-01  4.54265985359E-01
  4.60209995523E-01  4.66231782272E-01  4.72332363302E-01  4.78512769626E-01
  4.84774045746E-01  4.91117249834E-01  4.97543453906E-01  5.04053744007E-01
  5.10649220389E-01  5.17330997705E-01  5.24100205191E-01  5.30957986860E-01
  5.37905501691E-01  5.44943923833E-01  5.52074442795E-01  5.59298263652E-01
  5.66616607246E-01  5.74030710396E-01  5.81541826102E-01  5.89151223760E-01
  5.96860189378E-01  6.04670025789E-01  6.12582052872E-01  6.20597607781E-01
  6.28718045163E-01  6.36944737391E-01  6.45279074795E-01  6.53722465899E-01
  6.62276337655E-01  6.70942135689E-01  6.79721324540E-01  6.88615387914E-01
  6.97625828926E-01  7.06754170365E-01  7.16001954940E-01  7.25370745550E-01
  7.34862125542E-01  7.44477698982E-01  7.54219090926E-01  7.64087947691E-01
  7.74085937138E-01  7.84214748950E-01  7.94476094922E-01  8.04871709244E-01
  8.15403348802E-01  8.26072793465E-01  8.36881846397E-01  8.47832334353E-01
  8.58926107992E-01  8.70165042187E-01  8.81551036345E-01  8.93086014726E-01
  9.04771926770E-01  9.16610747423E-01  9.28604477473E-01  9.40755143891E-01
  9.53064800166E-01  9.65535526662E-01  9.78169430959E-01  9.90968648219E-01
  1.00393534154E+00  1.01707170232E+00  1.03037995064E+00  1.04386233563E+00
  1.05752113583E+00  1.07135865962E+00  1.08537724558E+00  1.09957926287E+00
  1.11396711168E+00  1.12854322358E+00  1.14331006197E+00  1.15827012248E+00
  1.17342593340E+00  1.18878005609E+00  1.20433508545E+00  1.22009365030E+00
  1.23605841388E+00  1.25223207427E+00  1.26861736487E+00  1.28521705482E+00
  1.30203394951E+00  1.31907089104E+00  1.33633075868E+00  1.35381646941E+00
  1.37153097834E+00  1.38947727927E+00  1.40765840517E+00  1.42607742869E+00
  1.44473746269E+00  1.46364166076E+00  1.48279321775E+00  1.50219537033E+00
  1.52185139750E+00  1.54176462118E+00  1.56193840674E+00  1.58237616362E+00
  1.60308134583E+00  1.62405745261E+00  1.64530802896E+00  1.66683666629E+00
  1.68864700298E+00  1.71074272503E+00  1.73312756667E+00  1.75580531100E+00
  1.77877979060E+00  1.80205488823E+00  1.82563453741E+00  1.84952272318E+00
  1.87372348270E+00  1.89824090594E+00  1.92307913641E+00  1.94824237183E+00
  1.97373486485E+00  1.99956092376E+00  2.02572491323E+00  2.05223125502E+00
  2.07908442879E+00  2.10628897277E+00  2.13384948460E+00  2.16177062207E+00
  2.19005710392E+00  2.21871371064E+00  2.24774528525E+00  2.27715673416E+00
  2.30695302799E+00  2.33713920237E+00  2.36772035883E+00  2.39870166567E+00
  2.43008835880E+00  2.46188574265E+00  2.49409919105E+00  2.52673414814E+00
  2.55979612932E+00  2.59329072215E+00  2.62722358727E+00  2.66160045943E+00
  2.69642714841E+00  2.73170953999E+00  2.76745359699E+00  2.80366536023E+00
  2.84035094959E+00  2.87751656502E+00  2.91516848760E+00  2.95331308059E+00
  2.99195679052E+00  3.03110614827E+00  3.07076777018E+00  3.11094835914E+00
  3.15165470579E+00  3.19289368957E+00  3.23467228000E+00  3.27699753773E+00
  3.31987661585E+00  3.36331676102E+00  3.40732531473E+00  3.45190971452E+00
  3.49707749528E+00  3.54283629045E+00  3.58919383339E+00  3.63615795863E+00
  3.68373660321E+00  3.73193780805E+00  3.78076971927E+00  3.83024058956E+00
  3.88035877963E+00  3.93113275957E+00  3.98257111031E+00  4.03468252504E+00
  4.08747581071E+00  4.14095988953E+00  4.19514380043E+00  4.25003670061E+00
  4.30564786712E+00  4.36198669836E+00  4.41906271573E+00  4.47688556522E+00
  4.53546501903E+00  4.59481097721E+00  4.65493346939E+00  4.71584265641E+00
  4.77754883206E+00  4.84006242483E+00  4.90339399967E+00  4.96755425977E+00
  5.03255404836E+00  5.09840435057E+00  5.16511629524E+00  5.23270115686E+00
  5.30117035743E+00  5.37053546841E+00  5.44080821267E+00  5.51200046646E+00
  5.58412426145E+00  5.65719178673E+00  5.73121539089E+00  5.80620758409E+00
  5.88218104019E+00  5.95914859889E+00  6.03712326789E+00  6.11611822508E+00
  6.19614682081E+00  6.27722258010E+00  6.35935920495E+00  6.44257057664E+00
  6.52687075810E+00  6.61227399624E+00  6.69879472443E+00  6.78644756487E+00
  6.87524733110E+00  6.96520903049E+00  7.05634786679E+00  7.14867924267E+00
  7.24221876236E+00  7.33698223425E+00  7.43298567361E+00  7.53024530524E+00
  7.62877756624E+00  7.72859910881E+00  7.82972680303E+00  7.93217773971E+00
  8.03596923331E+00  8.14111882484E+00  8.24764428482E+00  8.35556361632E+00
  8.46489505795E+00  8.57565708700E+00  8.68786842251E+00  8.80154802846E+00
  8.91671511697E+00  9.03338915156E+00  9.15158985042E+00  9.27133718974E+00
  9.39265140712E+00  9.51555300494E+00  9.64006275386E+00  9.76620169634E+00
  9.89399115014E+00  1.00234527120E+01  1.01546082612E+01  1.02874799634E+01
  1.04220902742E+01  1.05584619431E+01  1.06966180171E+01  1.08365818451E+01
  1.09783770811E+01  1.11220276891E+01  1.12675579461E+01  1.14149924473E+01
  1.15643561094E+01  1.17156741752E+01  1.18689722178E+01  1.20242761450E+01
  1.21816122035E+01  1.23410069834E+01  1.25024874228E+01  1.26660808124E+01
  1.28318147998E+01  1.29997173945E+01  1.31698169723E+01  1.33421422805E+01
  1.35167224426E+01  1.36935869629E+01  1.38727657319E+01  1.40542890315E+01
  1.42381875393E+01  1.44244923347E+01  1.46132349036E+01  1.48044471440E+01
  1.49981613712E+01  1.51944103234E+01  1.53932271671E+01  1.55946455028E+01
  1.57986993708E+01  1.60054232565E+01  1.62148520968E+01  1.64270212858E+01
  1.66419666804E+01  1.68597246070E+01  1.70803318672E+01  1.73038257442E+01
  1.75302440089E+01  1.77596249265E+01  1.79920072630E+01  1.82274302916E+01
  1.84659337993E+01  1.87075580937E+01  1.89523440100E+01  1.92003329175E+01
  1.94515667270E+01  1.97060878976E+01  1.99639394439E+01  2.02251649435E+01
  2.04898085441E+01  2.07579149711E+01  2.10295295352E+01  2.13046981398E+01
  2.15834672891E+01  2.18658840958E+01  2.21519962889E+01  2.24418522221E+01
  2.27355008817E+01  2.30329918951E+01  2.33343755389E+01  2.36397027478E+01
  2.39490251227E+01  2.42623949398E+01  2.45798651594E+01  2.49014894347E+01
  2.52273221211E+01  2.55574182848E+01  2.58918337132E+01  2.62306249230E+01
  2.65738491709E+01  2.69215644625E+01  2.72738295626E+01  2.76307040049E+01
  2.79922481018E+01  2.83585229553E+01  2.87295904667E+01  2.91055133473E+01
  2.94863551289E+01  2.98721801747E+01  3.02630536900E+01  3.06590417334E+01
  3.10602112279E+01  3.14666299720E+01  3.18783666514E+01  3.22954908507E+01
  3.27180730648E+01  3.31461847111E+01  3.35798981416E+01  3.40192866547E+01
  3.44644245082E+01  3.49153869316E+01  3.53722501384E+01  3.58350913397E+01
  3.63039887567E+01  3.67790216342E+01  3.72602702539E+01  3.77478159479E+01
  3.82417411127E+01  3.87421292228E+01  3.92490648449E+01  3.97626336524E+01
  4.02829224396E+01  4.08100191366E+01  4.13440128240E+01  4.18849937479E+01
  4.24330533355E+01  4.29882842100E+01  4.35507802070E+01  4.41206363894E+01
  4.46979490644E+01  4.52828157991E+01  4.58753354375E+01  4.64756081168E+01
  4.70837352845E+01  4.76998197155E+01  4.83239655296E+01  4.89562782088E+01
  4.95968646156E+01  5.02458330106E+01  5.09032930709E+01  5.15693559089E+01
  5.22441340908E+01  5.29277416557E+01  5.36202941349E+01  5.43219085715E+01
  5.50327035399E+01  5.57527991661E+01  5.64823171482E+01  5.72213807762E+01
  5.79701149538E+01  5.87286462188E+01  5.94971027648E+01  6.02756144628E+01
  6.10643128831E+01  6.18633313176E+01  6.26728048023E+01  6.34928701402E+01
  6.43236659243E+01  6.51653325610E+01  6.60180122940E+01  6.68818492282E+01
  6.77569893542E+01  6.86435805726E+01  6.95417727195E+01  7.04517175915E+01
  7.13735689714E+01  7.23074826544E+01  7.32536164741E+01  7.42121303292E+01
  7.51831862111E+01  7.61669482303E+01  7.71635826451E+01  7.81732578891E+01
  7.91961445996E+01  8.02324156471E+01  8.12822461638E+01  8.23458135736E+01
  8.34232976218E+01  8.45148804059E+01  8.56207464060E+01  8.67410825159E+01
  8.78760780753E+01  8.90259249010E+01  9.01908173199E+01  9.13709522016E+01
  9.25665289917E+01  9.37777497456E+01  9.50048191623E+01  9.62479446196E+01
  9.75073362086E+01  9.87832067695E+01  1.00075771927E+02  1.01385250129E+02
  1.02711862679E+02  1.04055833779E+02  1.05417390562E+02  1.06796763135E+02
  1.08194184615E+02  1.09609891169E+02  1.11044122057E+02  1.12497119665E+02
  1.13969129554E+02  1.15460400497E+02  1.16971184523E+02
  </PP_R>
  <PP_RAB>
  4.18378921963E-07  4.23853354663E-07  4.29399419589E-07  4.35018054038E-07
  4.40710207574E-07  4.46476842185E-07  4.52318932444E-07  4.58237465679E-07
  4.64233442137E-07  4.70307875151E-07  4.76461791316E-07  4.82696230657E-07
  4.89012246811E-07  4.95410907197E-07  5.01893293207E-07  5.08460500377E-07
  5.15113638582E-07  5.21853832218E-07  5.28682220394E-07  5.35599957123E-07
  5.42608211520E-07  5.49708167996E-07  5.56901026461E-07  5.64188002525E-07
  5.71570327704E-07  5.79049249629E-07  5.86626032255E-07  5.94301956077E-07
  6.02078318344E-07  6.09956433280E-07  6.17937632304E-07  6.26023264260E-07
  6.34214695637E-07  6.42513310807E-07  6.50920512256E-07  6.59437720820E-07
  6.68066375929E-07  6.76807935846E-07  6.85663877914E-07  6.94635698810E-07
  7.03724914793E-07  7.12933061960E-07  7.22261696513E-07  7.31712395011E-07
  7.41286754645E-07  7.50986393505E-07  7.60812950853E-07  7.70768087400E-07
  7.80853485589E-07  7.91070849876E-07  8.01421907018E-07  8.11908406371E-07
  8.22532120177E-07  8.33294843868E-07  8.44198396372E-07  8.55244620414E-07
  8.66435382832E-07  8.77772574892E-07  8.89258112607E-07  9.00893937059E-07
  9.12682014731E-07  9.24624337835E-07  9.36722924653E-07  9.48979819875E-07
  9.61397094946E-07  9.73976848413E-07  9.86721206286E-07  9.99632322392E-07
  1.01271237874E-06  1.02596358589E-06  1.03938818333E-06  1.05298843984E-06
  1.06676665391E-06  1.08072515408E-06  1.09486629937E-06  1.10919247967E-06
  1.12370611615E-06  1.13840966163E-06  1.15330560105E-06  1.16839645187E-06
  1.18368476446E-06  1.19917312260E-06  1.21486414385E-06  1.23076048004E-06
  1.24686481767E-06  1.26317987842E-06  1.27970841958E-06  1.29645323451E-06
  1.31341715312E-06  1.33060304236E-06  1.34801380668E-06  1.36565238854E-06
  1.38352176890E-06  1.40162496774E-06  1.41996504453E-06  1.43854509879E-06
  1.45736827060E-06  1.47643774112E-06  1.49575673312E-06  1.51532851158E-06
  1.53515638416E-06  1.55524370182E-06  1.57559385937E-06  1.59621029604E-06
  1.61709649604E-06  1.63825598920E-06  1.65969235152E-06  1.68140920580E-06
  1.70341022223E-06  1.72569911905E-06  1.74827966312E-06  1.77115567062E-06
  1.79433100765E-06  1.81780959088E-06  1.84159538826E-06  1.86569241965E-06
  1.89010475749E-06  1.91483652754E-06  1.93989190952E-06  1.96527513785E-06
  1.99099050235E-06  2.01704234899E-06  2.04343508059E-06  2.07017315758E-06
  2.09726109875E-06  2.12470348205E-06  2.15250494529E-06  2.18067018699E-06
  2.20920396714E-06  2.23811110803E-06  2.26739649501E-06  2.29706507740E-06
  2.32712186925E-06  2.35757195024E-06  2.38842046650E-06  2.41967263151E-06
  2.45133372695E-06  2.48340910362E-06  2.51590418234E-06  2.54882445485E-06
  2.58217548477E-06  2.61596290849E-06  2.65019243616E-06  2.68486985267E-06
  2.72000101857E-06  2.75559187111E-06  2.79164842525E-06  2.82817677461E-06
  2.86518309257E-06  2.90267363330E-06  2.94065473278E-06  2.97913280991E-06
  3.01811436757E-06  3.05760599375E-06  3.09761436262E-06  3.13814623568E-06
  3.17920846293E-06  3.22080798398E-06  3.26295182924E-06  3.30564712113E-06
  3.34890107525E-06  3.39272100162E-06  3.43711430591E-06  3.48208849071E-06
  3.52765115674E-06  3.57381000422E-06  3.62057283409E-06  3.66794754940E-06
  3.71594215656E-06  3.76456476680E-06  3.81382359744E-06  3.86372697334E-06
  3.91428332831E-06  3.96550120647E-06  4.01738926377E-06  4.06995626942E-06
  4.12321110736E-06  4.17716277780E-06  4.23182039869E-06  4.28719320729E-06
  4.34329056176E-06  4.40012194266E-06  4.45769695465E-06  4.51602532803E-06
  4.57511692044E-06  4.63498171850E-06  4.69562983950E-06  4.75707153312E-06
  4.81931718316E-06  4.88237730926E-06  4.94626256875E-06  5.01098375839E-06
  5.07655181621E-06  5.14297782337E-06  5.21027300603E-06  5.27844873722E-06
  5.34751653881E-06  5.41748808343E-06  5.48837519642E-06  5.56018985789E-06
  5.63294420467E-06  5.70665053244E-06  5.78132129772E-06  5.85696912007E-06
  5.93360678413E-06  6.01124724187E-06  6.08990361470E-06  6.16958919573E-06
  6.25031745202E-06  6.33210202684E-06  6.41495674197E-06  6.49889560005E-06
  6.58393278697E-06  6.67008267419E-06  6.75735982126E-06  6.84577897822E-06
  6.93535508813E-06  7.02610328955E-06  7.11803891915E-06  7.21117751427E-06
  7.30553481555E-06  7.40112676960E-06  7.49796953170E-06  7.59607946849E-06
  7.69547316079E-06  7.79616740637E-06  7.89817922279E-06  8.00152585031E-06
  8.10622475474E-06  8.21229363044E-06  8.31975040331E-06  8.42861323381E-06
  8.53890052000E-06  8.65063090070E-06  8.76382325862E-06  8.87849672352E-06
  8.99467067550E-06  9.11236474824E-06  9.23159883230E-06  9.35239307854E-06
  9.47476790147E-06  9.59874398273E-06  9.72434227456E-06  9.85158400339E-06
  9.98049067335E-06  1.01110840700E-05  1.02433862639E-05  1.03774196145E-05
  1.05132067737E-05  1.06507706899E-05  1.07901346116E-05  1.09313220918E-05
  1.10743569914E-05  1.12192634838E-05  1.13660660583E-05  1.15147895251E-05
  1.16654590187E-05  1.18181000027E-05  1.19727382736E-05  1.21293999659E-05
  1.22881115556E-05  1.24488998654E-05  1.26117920689E-05  1.27768156953E-05
  1.29439986340E-05  1.31133691392E-05  1.32849558350E-05  1.34587877200E-05
  1.36348941721E-05  1.38133049538E-05  1.39940502170E-05  1.41771605079E-05
  1.43626667727E-05  1.45506003623E-05  1.47409930381E-05  1.49338769767E-05
  1.51292847761E-05  1.53272494607E-05  1.55278044869E-05  1.57309837490E-05
  1.59368215848E-05  1.61453527813E-05  1.63566125809E-05  1.65706366870E-05
  1.67874612701E-05  1.70071229742E-05  1.72296589225E-05  1.74551067241E-05
  1.76835044804E-05  1.79148907909E-05  1.81493047607E-05  1.83867860062E-05
  1.86273746622E-05  1.88711113889E-05  1.91180373784E-05  1.93681943617E-05
  1.96216246159E-05  1.98783709714E-05  2.01384768189E-05  2.04019861169E-05
  2.06689433991E-05  2.09393937819E-05  2.12133829722E-05  2.14909572746E-05
  2.17721636000E-05  2.20570494728E-05  2.23456630395E-05  2.26380530765E-05
  2.29342689983E-05  2.32343608661E-05  2.35383793962E-05  2.38463759685E-05
  2.41584026350E-05  2.44745121291E-05  2.47947578741E-05  2.51191939921E-05
  2.54478753136E-05  2.57808573867E-05  2.61181964860E-05  2.64599496227E-05
  2.68061745539E-05  2.71569297923E-05  2.75122746166E-05  2.78722690807E-05