<PP_INFO>
Generated using ld1 code (maybe, or maybe not)                                  
Author: unknown    Generation date: as well                                     
Info: automatically converted from PWSCF format                                 
    1        The Pseudo was generated with a Scalar-Relativistic Calculation
nl pn  l   occ               Rcut            Rcut US             E pseu
*S  0  0  2.00      0.00000000000      0.00000000000      0.00000000000
*P  0  1  5.00      0.00000000000      0.00000000000      0.00000000000
</PP_INFO>


<PP_HEADER>
   0                   Version Number
  Br                   Element
   NC                  Norm - Conserving pseudopotential
    F                  Nonlinear Core Correction
SLA  PW   PBE  PBE     PBE  Exchange-Correlation functional    
    7.00000000000      Z valence
    0.00000000000      Total energy
  0.0000000  0.0000000 Suggested cutoff for wfc and rho
    1                  Max angular momentum component
 1167                  Number of points in mesh
    2    1             Number of Wavefunctions, Number of Projectors
 Wavefunctions         nl  l   occ
                       *S  0  2.00
                       *P  1  5.00
</PP_HEADER>


<PP_MESH>
  <PP_R>
  3.05710809918E-05  3.09710995316E-05  3.13763522610E-05  3.17869076686E-05
  3.22028351392E-05  3.26242049656E-05  3.30510883603E-05  3.34835574676E-05
  3.39216853758E-05  3.43655461295E-05  3.48152147424E-05  3.52707672094E-05
  3.57322805200E-05  3.61998326711E-05  3.66735026800E-05  3.71533705982E-05
  3.76395175245E-05  3.81320256187E-05  3.86309781161E-05  3.91364593408E-05
  3.96485547202E-05  4.01673507997E-05  4.06929352571E-05  4.12253969174E-05
  4.17648257679E-05  4.23113129734E-05  4.28649508915E-05  4.34258330883E-05
  4.39940543542E-05  4.45697107201E-05  4.51528994731E-05  4.57437191736E-05
  4.63422696716E-05  4.69486521234E-05  4.75629690091E-05  4.81853241499E-05
  4.88158227250E-05  4.94545712905E-05  5.01016777961E-05  5.07572516046E-05
  5.14214035094E-05  5.20942457538E-05  5.27758920497E-05  5.34664575969E-05
  5.41660591028E-05  5.48748148016E-05  5.55928444746E-05  5.63202694707E-05
  5.70572127264E-05  5.78037987869E-05  5.85601538269E-05  5.93264056723E-05
  6.01026838214E-05  6.08891194672E-05  6.16858455191E-05  6.24929966257E-05
  6.33107091975E-05  6.41391214298E-05  6.49783733262E-05  6.58286067225E-05
  6.66899653099E-05  6.75625946602E-05  6.84466422498E-05  6.93422574849E-05
  7.02495917265E-05  7.11687983163E-05  7.21000326025E-05  7.30434519657E-05
  7.39992158462E-05  7.49674857703E-05  7.59484253779E-05  7.69422004501E-05
  7.79489789374E-05  7.89689309876E-05  8.00022289751E-05  8.10490475298E-05
  8.21095635663E-05  8.31839563146E-05  8.42724073494E-05  8.53751006217E-05
  8.64922224891E-05  8.76239617481E-05  8.87705096651E-05  8.99320600095E-05
  9.11088090861E-05  9.23009557683E-05  9.35087015317E-05  9.47322504883E-05
  9.59718094206E-05  9.72275878171E-05  9.84997979074E-05  9.97886546980E-05
  1.01094376009E-04  1.02417182510E-04  1.03757297758E-04  1.05114948237E-04
  1.06490363392E-04  1.07883775672E-04  1.09295420567E-04  1.10725536648E-04
  1.12174365609E-04  1.13642152304E-04  1.15129144793E-04  1.16635594382E-04
  1.18161755664E-04  1.19707886564E-04  1.21274248382E-04  1.22861105836E-04
  1.24468727109E-04  1.26097383894E-04  1.27747351437E-04  1.29418908586E-04
  1.31112337838E-04  1.32827925388E-04  1.34565961174E-04  1.36326738927E-04
  1.38110556223E-04  1.39917714532E-04  1.41748519268E-04  1.43603279841E-04
  1.45482309711E-04  1.47385926436E-04  1.49314451735E-04  1.51268211530E-04
  1.53247536014E-04  1.55252759696E-04  1.57284221464E-04  1.59342264639E-04
  1.61427237037E-04  1.63539491022E-04  1.65679383570E-04  1.67847276328E-04
  1.70043535676E-04  1.72268532786E-04  1.74522643687E-04  1.76806249331E-04
  1.79119735652E-04  1.81463493635E-04  1.83837919379E-04  1.86243414170E-04
  1.88680384541E-04  1.91149242346E-04  1.93650404828E-04  1.96184294690E-04
  1.98751340164E-04  2.01351975088E-04  2.03986638974E-04  2.06655777088E-04
  2.09359840521E-04  2.12099286264E-04  2.14874577292E-04  2.17686182635E-04
  2.20534577461E-04  2.23420243155E-04  2.26343667402E-04  2.29305344268E-04
  2.32305774283E-04  2.35345464526E-04  2.38424928713E-04  2.41544687281E-04
  2.44705267475E-04  2.47907203442E-04  2.51151036317E-04  2.54437314315E-04
  2.57766592824E-04  2.61139434501E-04  2.64556409363E-04  2.68018094889E-04
  2.71525076111E-04  2.75077945717E-04  2.78677304150E-04  2.82323759711E-04
  2.86017928659E-04  2.89760435318E-04  2.93551912181E-04  2.97393000015E-04
  3.01284347974E-04  3.05226613704E-04  3.09220463459E-04  3.13266572209E-04
  3.17365623754E-04  3.21518310846E-04  3.25725335297E-04  3.29987408105E-04
  3.34305249570E-04  3.38679589419E-04  3.43111166924E-04  3.47600731033E-04
  3.52149040492E-04  3.56756863978E-04  3.61424980223E-04  3.66154178150E-04
  3.70945257004E-04  3.75799026490E-04  3.80716306905E-04  3.85697929283E-04
  3.90744735528E-04  3.95857578564E-04  4.01037322473E-04  4.06284842644E-04
  4.11601025920E-04  4.16986770750E-04  4.22442987336E-04  4.27970597792E-04
  4.33570536298E-04  4.39243749257E-04  4.44991195454E-04  4.50813846223E-04
  4.56712685605E-04  4.62688710518E-04  4.68742930924E-04  4.74876370001E-04
  4.81090064314E-04  4.87385063994E-04  4.93762432910E-04  5.00223248852E-04
  5.06768603713E-04  5.13399603675E-04  5.20117369391E-04  5.26923036181E-04
  5.33817754219E-04  5.40802688727E-04  5.47879020177E-04  5.55047944485E-04
  5.62310673217E-04  5.69668433791E-04  5.77122469686E-04  5.84674040652E-04
  5.92324422923E-04  6.00074909431E-04  6.07926810027E-04  6.15881451701E-04
  6.23940178805E-04  6.32104353286E-04  6.40375354906E-04  6.48754581485E-04
  6.57243449133E-04  6.65843392488E-04  6.74555864961E-04  6.83382338981E-04
  6.92324306243E-04  7.01383277960E-04  7.10560785120E-04  7.19858378745E-04
  7.29277630148E-04  7.38820131207E-04  7.48487494627E-04  7.58281354215E-04
  7.68203365156E-04  7.78255204294E-04  7.88438570415E-04  7.98755184530E-04
  8.09206790172E-04  8.19795153688E-04  8.30522064537E-04  8.41389335591E-04
  8.52398803445E-04  8.63552328725E-04  8.74851796405E-04  8.86299116120E-04
  8.97896222496E-04  9.09645075470E-04  9.21547660627E-04  9.33605989532E-04
  9.45822100072E-04  9.58198056797E-04  9.70735951275E-04  9.83437902439E-04
  9.96306056949E-04  1.00934258955E-03  1.02254970346E-03  1.03592963070E-03
  1.04948463251E-03  1.06321699972E-03  1.07712905314E-03  1.09122314393E-03
  1.10550165403E-03  1.11996699653E-03  1.13462161613E-03  1.14946798948E-03
  1.16450862566E-03  1.17974606656E-03  1.19518288736E-03  1.21082169692E-03
  1.22666513822E-03  1.24271588884E-03  1.25897666142E-03  1.27545020404E-03
  1.29213930078E-03  1.30904677215E-03  1.32617547553E-03  1.34352830572E-03
  1.36110819539E-03  1.37891811559E-03  1.39696107624E-03  1.41524012663E-03
  1.43375835596E-03  1.45251889388E-03  1.47152491094E-03  1.49077961922E-03
  1.51028627280E-03  1.53004816835E-03  1.55006864569E-03  1.57035108832E-03
  1.59089892402E-03  1.61171562542E-03  1.63280471060E-03  1.65416974366E-03
  1.67581433535E-03  1.69774214365E-03  1.71995687441E-03  1.74246228197E-03
  1.76526216981E-03  1.78836039116E-03  1.81176084967E-03  1.83546750008E-03
  1.85948434886E-03  1.88381545492E-03  1.90846493028E-03  1.93343694075E-03
  1.95873570667E-03  1.98436550359E-03  2.01033066299E-03  2.03663557307E-03
  2.06328467940E-03  2.09028248576E-03  2.11763355483E-03  2.14534250901E-03
  2.17341403118E-03  2.20185286550E-03  2.23066381819E-03  2.25985175837E-03
  2.28942161888E-03  2.31937839710E-03  2.34972715578E-03  2.38047302395E-03
  2.41162119772E-03  2.44317694121E-03  2.47514558743E-03  2.50753253913E-03
  2.54034326981E-03  2.57358332454E-03  2.60725832098E-03  2.64137395029E-03
  2.67593597807E-03  2.71095024541E-03  2.74642266979E-03  2.78235924614E-03
  2.81876604782E-03  2.85564922767E-03  2.89301501904E-03  2.93086973684E-03
  2.96921977859E-03  3.00807162556E-03  3.04743184379E-03  3.08730708525E-03
  3.12770408896E-03  3.16862968211E-03  3.21009078121E-03  3.25209439329E-03
  3.29464761707E-03  3.33775764414E-03  3.38143176019E-03  3.42567734626E-03
  3.47050187995E-03  3.51591293672E-03  3.56191819115E-03  3.60852541823E-03
  3.65574249469E-03  3.70357740033E-03  3.75203821938E-03  3.80113314180E-03
  3.85087046478E-03  3.90125859403E-03  3.95230604527E-03  4.00402144564E-03
  4.05641353516E-03  4.10949116823E-03  4.16326331508E-03  4.21773906334E-03
  4.27292761954E-03  4.32883831068E-03  4.38548058580E-03  4.44286401757E-03
  4.50099830394E-03  4.55989326974E-03  4.61955886835E-03  4.68000518340E-03
  4.74124243047E-03  4.80328095879E-03  4.86613125303E-03  4.92980393503E-03
  4.99430976563E-03  5.05965964647E-03  5.12586462183E-03  5.19293588051E-03
  5.26088475771E-03  5.32972273696E-03  5.39946145204E-03  5.47011268895E-03
  5.54168838793E-03  5.61420064544E-03  5.68766171621E-03  5.76208401536E-03
  5.83748012041E-03  5.91386277351E-03  5.99124488348E-03  6.06963952810E-03
  6.14905995625E-03  6.22951959016E-03  6.31103202772E-03  6.39361104470E-03
  6.47727059717E-03  6.56202482379E-03  6.64788804822E-03  6.73487478155E-03
  6.82299972476E-03  6.91227777115E-03  7.00272400894E-03  7.09435372375E-03
  7.18718240123E-03  7.28122572964E-03  7.37649960253E-03  7.47302012141E-03
  7.57080359848E-03  7.66986655937E-03  7.77022574597E-03  7.87189811921E-03
  7.97490086197E-03  8.07925138196E-03  8.18496731466E-03  8.29206652631E-03
  8.40056711695E-03  8.51048742342E-03  8.62184602252E-03  8.73466173412E-03
  8.84895362435E-03  8.96474100880E-03  9.08204345581E-03  9.20088078979E-03
  9.32127309451E-03  9.44324071658E-03  9.56680426880E-03  9.69198463372E-03
  9.81880296710E-03  9.94728070156E-03  1.00774395501E-02  1.02093015100E-02
  1.03428888661E-02  1.04782241950E-02  1.06153303688E-02  1.07542305586E-02
  1.08949482390E-02  1.10375071916E-02  1.11819315092E-02  1.13282455998E-02
  1.14764741909E-02  1.16266423335E-02  1.17787754062E-02  1.19328991201E-02
  1.20890395223E-02  1.22472230010E-02  1.24074762895E-02  1.25698264710E-02
  1.27343009831E-02  1.29009276224E-02  1.30697345491E-02  1.32407502921E-02
  1.34140037534E-02  1.35895242133E-02  1.37673413351E-02  1.39474851704E-02
  1.41299861639E-02  1.43148751586E-02  1.45021834013E-02  1.46919425476E-02
  1.48841846671E-02  1.50789422492E-02  1.52762482084E-02  1.54761358900E-02
  1.56786390754E-02  1.58837919881E-02  1.60916292994E-02  1.63021861344E-02
  1.65154980776E-02  1.67316011793E-02  1.69505319615E-02  1.71723274239E-02
  1.73970250505E-02  1.76246628157E-02  1.78552791909E-02  1.80889131508E-02
  1.83256041801E-02  1.85653922801E-02  1.88083179755E-02  1.90544223215E-02
  1.93037469102E-02  1.95563338781E-02  1.98122259129E-02  2.00714662611E-02
  2.03340987348E-02  2.06001677196E-02  2.08697181818E-02  2.11427956761E-02
  2.14194463531E-02  2.16997169676E-02  2.19836548858E-02  2.22713080941E-02
  2.25627252065E-02  2.28579554731E-02  2.31570487885E-02  2.34600557004E-02
  2.37670274175E-02  2.40780158188E-02  2.43930734620E-02  2.47122535928E-02
  2.50356101532E-02  2.53631977913E-02  2.56950718703E-02  2.60312884775E-02
  2.63719044344E-02  2.67169773060E-02  2.70665654103E-02  2.74207278286E-02
  2.77795244151E-02  2.81430158074E-02  2.85112634363E-02  2.88843295367E-02
  2.92622771574E-02  2.96451701727E-02  3.00330732922E-02  3.04260520727E-02
  3.08241729283E-02  3.12275031426E-02  3.16361108792E-02  3.20500651938E-02
  3.24694360457E-02  3.28942943096E-02  3.33247117876E-02  3.37607612211E-02
  3.42025163037E-02  3.46500516929E-02  3.51034430233E-02  3.55627669191E-02
  3.60281010072E-02  3.64995239301E-02  3.69771153594E-02  3.74609560093E-02
  3.79511276498E-02  3.84477131213E-02  3.89507963477E-02  3.94604623515E-02
  3.99767972673E-02  4.04998883571E-02  4.10298240243E-02  4.15666938294E-02
  4.21105885048E-02  4.26615999698E-02  4.32198213468E-02  4.37853469764E-02
  4.43582724339E-02  4.49386945450E-02  4.55267114025E-02  4.61224223825E-02
  4.67259281617E-02  4.73373307339E-02  4.79567334278E-02  4.85842409237E-02
  4.92199592719E-02  4.98639959105E-02  5.05164596830E-02  5.11774608574E-02
  5.18471111446E-02  5.25255237169E-02  5.32128132277E-02  5.39090958306E-02
  5.46144891991E-02  5.53291125462E-02  5.60530866450E-02  5.67865338488E-02
  5.75295781121E-02  5.82823450109E-02  5.90449617648E-02  5.98175572578E-02
  6.06002620603E-02  6.13932084513E-02  6.21965304407E-02  6.30103637917E-02
  6.38348460442E-02  6.46701165377E-02  6.55163164347E-02  6.63735887451E-02
  6.72420783501E-02  6.81219320263E-02  6.90132984711E-02  6.99163283277E-02
  7.08311742101E-02  7.17579907296E-02  7.26969345203E-02  7.36481642660E-02
  7.46118407267E-02  7.55881267661E-02  7.65771873788E-02  7.75791897184E-02
  7.85943031258E-02  7.96226991574E-02  8.06645516147E-02  8.17200365732E-02
  8.27893324124E-02  8.38726198459E-02  8.49700819517E-02  8.60819042036E-02
  8.72082745021E-02  8.83493832067E-02  8.95054231673E-02  9.06765897574E-02
  9.18630809070E-02  9.30650971359E-02  9.42828415878E-02  9.55165200643E-02
  9.67663410600E-02  9.80325157976E-02  9.93152582638E-02  1.00614785245E-01
  1.01931316364E-01  1.03265074119E-01  1.04616283917E-01  1.05985174115E-01
  1.07371976061E-01  1.08776924126E-01  1.10200255750E-01  1.11642211479E-01
  1.13103035008E-01  1.14582973219E-01  1.16082276225E-01  1.17601197413E-01
  1.19139993482E-01  1.20698924494E-01  1.22278253912E-01  1.23878248645E-01
  1.25499179097E-01  1.27141319210E-01  1.28804946507E-01  1.30490342148E-01
  1.32197790966E-01  1.33927581526E-01  1.35680006167E-01  1.37455361051E-01
  1.39253946218E-01  1.41076065633E-01  1.42922027240E-01  1.44792143009E-01
  1.46686728995E-01  1.48606105387E-01  1.50550596565E-01  1.52520531152E-01
  1.54516242072E-01  1.56538066605E-01  1.58586346443E-01  1.60661427751E-01
  1.62763661223E-01  1.64893402141E-01  1.67051010437E-01  1.69236850751E-01
  1.71451292495E-01  1.73694709916E-01  1.75967482156E-01  1.78269993320E-01
  1.80602632537E-01  1.82965794028E-01  1.85359877175E-01  1.87785286581E-01
  1.90242432148E-01  1.92731729139E-01  1.95253598251E-01  1.97808465686E-01
  2.00396763222E-01  2.03018928288E-01  2.05675404036E-01  2.08366639417E-01
  2.11093089256E-01  2.13855214330E-01  2.16653481443E-01  2.19488363511E-01
  2.22360339635E-01  2.25269895185E-01  2.28217521883E-01  2.31203717886E-01
  2.34228987868E-01  2.37293843106E-01  2.40398801569E-01  2.43544388001E-01
  2.46731134014E-01  2.49959578176E-01  2.53230266102E-01  2.56543750545E-01
  2.59900591493E-01  2.63301356259E-01  2.66746619582E-01  2.70236963717E-01
  2.73772978543E-01  2.77355261654E-01  2.80984418465E-01  2.84661062310E-01
  2.88385814553E-01  2.92159304685E-01  2.95982170435E-01  2.99855057876E-01
  3.03778621535E-01  3.07753524505E-01  3.11780438553E-01  3.15860044236E-01
  3.19993031020E-01  3.24180097387E-01  3.28421950961E-01  3.32719308628E-01
  3.37072896649E-01  3.41483450793E-01  3.45951716452E-01  3.50478448774E-01
  3.55064412789E-01  3.59710383535E-01  3.64417146191E-01  3.69185496213E-01
  3.74016239462E-01  3.78910192346E-01  3.83868181954E-01  3.88891046198E-01
  3.93979633955E-01  3.99134805208E-01  4.04357431193E-01  4.09648394546E-01
  4.15008589453E-01  4.20438921799E-01  4.25940309323E-01  4.31513681774E-01
  4.37159981064E-01  4.42880161431E-01  4.48675189600E-01  4.54546044943E-01
  4.60493719651E-01  4.66519218892E-01  4.72623560992E-01  4.78807777599E-01
  4.85072913860E-01  4.91420028597E-01  4.97850194489E-01  5.04364498249E-01
  5.10964040810E-01  5.17649937510E-01  5.24423318281E-01  5.31285327841E-01
  5.38237125886E-01  5.45279887286E-01  5.52414802285E-01  5.59643076701E-01
  5.66965932128E-01  5.74384606148E-01  5.81900352533E-01  5.89514441462E-01
  5.97228159735E-01  6.05042810989E-01  6.12959715918E-01  6.20980212498E-01
  6.29105656211E-01  6.37337420278E-01  6.45676895886E-01  6.54125492426E-01
  6.62684637731E-01  6.71355778317E-01  6.80140379627E-01  6.89039926281E-01
  6.98055922322E-01  7.07189891475E-01  7.16443377403E-01  7.25817943967E-01
  7.35315175492E-01  7.44936677031E-01  7.54684074641E-01  7.64559015656E-01
  7.74563168965E-01  7.84698225293E-01  7.94965897488E-01  8.05367920812E-01
  8.15906053232E-01  8.26582075716E-01  8.37397792539E-01  8.48355031582E-01
  8.59455644644E-01  8.70701507756E-01  8.82094521495E-01  8.93636611308E-01
  9.05329727834E-01  9.17175847240E-01  9.29176971547E-01  9.41335128973E-01
  9.53652374277E-01  9.66130789102E-01  9.78772482329E-01  9.91579590436E-01
  1.00455427785E+00  1.01769873734E+00  1.03101519033E+00  1.04450588734E+00
  1.05817310833E+00  1.07201916310E+00  1.08604639165E+00  1.10025716463E+00
  1.11465388369E+00  1.12923898191E+00  1.14401492421E+00  1.15898420775E+00
  1.17414936238E+00  1.18951295105E+00  1.20507757024E+00  1.22084585040E+00
  1.23682045642E+00  1.25300408804E+00  1.26939948033E+00  1.28600940416E+00
  1.30283666664E+00  1.31988411161E+00  1.33715462014E+00  1.35465111099E+00
  1.37237654109E+00  1.39033390610E+00  1.40852624085E+00  1.42695661988E+00
  1.44562815798E+00  1.46454401068E+00  1.48370737480E+00  1.50312148900E+00
  1.52278963431E+00  1.54271513469E+00  1.56290135761E+00  1.58335171457E+00
  1.60406966173E+00  1.62505870049E+00  1.64632237804E+00  1.66786428799E+00
  1.68968807097E+00  1.71179741526E+00  1.73419605739E+00  1.75688778277E+00
  1.77987642638E+00  1.80316587333E+00  1.82676005961E+00  1.85066297269E+00
  1.87487865222E+00  1.89941119070E+00  1.92426473419E+00  1.94944348300E+00
  1.97495169240E+00  2.00079367334E+00  2.02697379317E+00  2.05349647639E+00
  2.08036620541E+00  2.10758752127E+00  2.13516502443E+00  2.16310337557E+00
  2.19140729633E+00  2.22008157013E+00  2.24913104300E+00  2.27856062437E+00
  2.30837528792E+00  2.33858007238E+00  2.36918008243E+00  2.40018048956E+00
  2.43158653291E+00  2.46340352016E+00  2.49563682848E+00  2.52829190536E+00
  2.56137426959E+00  2.59488951216E+00  2.62884329724E+00  2.66324136310E+00
  2.69808952308E+00  2.73339366662E+00  2.76915976019E+00  2.80539384835E+00
  2.84210205474E+00  2.87929058315E+00  2.91696571852E+00  2.95513382804E+00
  2.99380136221E+00  3.03297485594E+00  3.07266092964E+00  3.11286629034E+00
  3.15359773286E+00  3.19486214090E+00  3.23666648825E+00  3.27901783993E+00
  3.32192335344E+00  3.36539027990E+00  3.40942596533E+00  3.45403785185E+00
  3.49923347900E+00  3.54502048494E+00  3.59140660777E+00  3.63839968687E+00
  3.68600766417E+00  3.73423858554E+00  3.78310060213E+00  3.83260197171E+00
  3.88275106016E+00  3.93355634277E+00  3.98502640577E+00  4.03716994771E+00
  4.08999578099E+00  4.14351283328E+00  4.19773014911E+00  4.25265689132E+00
  4.30830234267E+00  4.36467590737E+00  4.42178711269E+00  4.47964561055E+00
  4.53826117919E+00  4.59764372476E+00  4.65780328307E+00  4.71875002121E+00
  4.78049423934E+00  4.84304637238E+00  4.90641699178E+00  4.97061680733E+00
  5.03565666895E+00  5.10154756853E+00  5.16830064180E+00  5.23592717017E+00
  5.30443858270E+00  5.37384645797E+00  5.44416252609E+00  5.51539867062E+00
  5.58756693067E+00  5.66067950282E+00  5.73474874328E+00  5.80978716993E+00
  5.88580746443E+00  5.96282247441E+00  6.04084521558E+00  6.11988887397E+00
  6.19996680814E+00  6.28109255146E+00  6.36327981437E+00  6.44654248671E+00
  6.53089464008E+00  6.61635053019E+00  6.70292459928E+00  6.79063147858E+00
  6.87948599077E+00  6.96950315246E+00  7.06069817678E+00  7.15308647589E+00
  7.24668366364E+00  7.34150555818E+00  7.43756818463E+00  7.53488777780E+00
  7.63348078495E+00  7.73336386851E+00  7.83455390897E+00  7.93706800770E+00
  8.04092348980E+00  8.14613790712E+00  8.25272904113E+00  8.36071490599E+00
  8.47011375156E+00  8.58094406653E+00  8.69322458146E+00  8.80697427204E+00
  8.92221236223E+00  9.03895832754E+00  9.15723189833E+00  9.27705306310E+00
  9.39844207192E+00  9.52141943982E+00  9.64600595027E+00  9.77222265868E+00
  9.90009089598E+00  1.00296322722E+01  1.01608686802E+01  1.02938222991E+01
  1.04285155985E+01  1.05649713419E+01  1.07032125905E+01  1.08432627076E+01
  1.09851453619E+01  1.11288845319E+01  1.12745045098E+01  1.14220299059E+01
  1.15714856522E+01  1.17228970071E+01  1.18762895595E+01  1.20316892331E+01
  1.21891222909E+01  1.23486153393E+01  1.25101953331E+01  1.26738895796E+01
  1.28397257437E+01  1.30077318520E+01  1.31779362980E+01  1.33503678465E+01
  1.35250556390E+01  1.37020291980E+01  1.38813184326E+01  1.40629536431E+01
  1.42469655262E+01  1.44333851804E+01  1.46222441111E+01  1.48135742358E+01
  1.50074078898E+01  1.52037778314E+01  1.54027172477E+01  1.56042597599E+01
  1.58084394291E+01  1.60152907622E+01  1.62248487175E+01  1.64371487109E+01
  1.66522266216E+01  1.68701187982E+01  1.70908620650E+01  1.73144937282E+01
  1.75410515820E+01  1.77705739153E+01  1.80030995179E+01  1.82386676871E+01
  1.84773182347E+01  1.87190914929E+01  1.89640283222E+01  1.92121701174E+01
  1.94635588151E+01  1.97182369005E+01  1.99762474149E+01  2.02376339627E+01
  2.05024407188E+01  2.07707124361E+01  2.10424944533E+01  2.13178327022E+01
  2.15967737155E+01  2.18793646350E+01  2.21656532191E+01  2.24556878514E+01
  2.27495175485E+01  2.30471919681E+01  2.33487614180E+01  2.36542768642E+01
  2.39637899394E+01  2.42773529522E+01  2.45950188954E+01  2.49168414554E+01
  2.52428750209E+01  2.55731746923E+01  2.59077962911E+01  2.62467963692E+01
  2.65902322183E+01  2.69381618799E+01  2.72906441550E+01  2.76477386140E+01
  2.80095056065E+01  2.83760062722E+01  2.87473025505E+01  2.91234571913E+01
  2.95045337657E+01  2.98905966766E+01  3.02817111694E+01  3.06779433435E+01
  3.10793601630E+01  3.14860294683E+01  3.18980199876E+01  3.23154013482E+01
  3.27382440885E+01  3.31666196700E+01  3.36006004892E+01  3.40402598898E+01
  3.44856721753E+01  3.49369126215E+01  3.53940574892E+01  3.58571840367E+01
  3.63263705337E+01  3.68016962738E+01  3.72832415882E+01  3.77710878591E+01
  3.82653175338E+01  3.87660141382E+01  3.92732622913E+01  3.97871477192E+01
  4.03077572697E+01  4.08351789271E+01  4.13695018270E+01  4.19108162711E+01
  4.24592137430E+01  4.30147869230E+01  4.35776297044E+01  4.41478372090E+01
  4.47255058031E+01  4.53107331141E+01  4.59036180469E+01  4.65042608004E+01
  4.71127628846E+01  4.77292271379E+01  4.83537577442E+01  4.89864602506E+01
  4.96274415854E+01  5.02768100760E+01  5.09346754671E+01  5.16011489396E+01
  5.22763431291E+01  5.29603721450E+01  5.36533515898E+01  5.43553985788E+01
  5.50666317595E+01  5.57871713320E+01  5.65171390692E+01  5.72566583375E+01
  5.80058541173E+01  5.87648530246E+01  5.95337833318E+01  6.03127749901E+01
  6.11019596510E+01  6.19014706884E+01  6.27114432218E+01  6.35320141383E+01
  6.43633221164E+01  6.52055076491E+01  6.60587130678E+01  6.69230825663E+01
  6.77987622250E+01  6.86859000358E+01  6.95846459273E+01  7.04951517895E+01
  7.14175715002E+01  7.23520609504E+01  7.32987780712E+01  7.42578828599E+01
  7.52295374075E+01  7.62139059260E+01  7.72111547761E+01  7.82214524950E+01
  7.92449698256E+01  8.02818797447E+01  8.13323574925E+01  8.23965806024E+01
  8.34747289305E+01  8.45669846864E+01  8.56735324641E+01  8.67945592726E+01
  8.79302545682E+01  8.90808102862E+01  9.02464208731E+01  9.14272833199E+01
  9.26235971952E+01  9.38355646789E+01  9.50633905964E+01  9.63072824531E+01
  9.75674504698E+01  9.88441076178E+01  1.00137469655E+02  1.01447755163E+02
  1.02775185584E+02  1.04119985255E+02  1.05482381452E+02  1.06862604422E+02
  1.08260887426E+02  1.09677466778E+02  1.11112581884E+02  1.12566475280E+02
  1.14039392678E+02  1.15531583005E+02  1.17043298444E+02
  </PP_R>
  <PP_RAB>
  3.97424052893E-07  4.02624293911E-07  4.07892579393E-07  4.13229799691E-07
  4.18636856809E-07  4.24114664553E-07  4.29664148684E-07  4.35286247078E-07
  4.40981909885E-07  4.46752099684E-07  4.52597791651E-07  4.58519973722E-07
  4.64519646760E-07  4.70597824724E-07  4.76755534840E-07  4.82993817777E-07
  4.89313727818E-07  4.95716333044E-07  5.02202715510E-07  5.08773971430E-07
  5.15431211362E-07  5.22175560396E-07  5.29008158342E-07  5.35930159926E-07
  5.42942734983E-07  5.50047068654E-07  5.57244361589E-07  5.64535830148E-07
  5.71922706605E-07  5.79406239361E-07  5.86987693151E-07  5.94668349257E-07
  6.02449505730E-07  6.10332477604E-07  6.18318597119E-07  6.26409213948E-07
  6.34605695426E-07  6.42909426776E-07  6.51321811350E-07  6.59844270860E-07
  6.68478245622E-07  6.77225194799E-07  6.86086596646E-07  6.95063948760E-07
  7.04158768336E-07  7.13372592420E-07  7.22706978170E-07  7.32163503119E-07
  7.41743765443E-07  7.51449384229E-07  7.61281999750E-07  7.71243273740E-07
  7.81334889679E-07  7.91558553074E-07  8.01915991748E-07  8.12408956134E-07
  8.23039219567E-07  8.33808578587E-07  8.44718853241E-07  8.55771887392E-07
  8.66969549029E-07  8.78313730583E-07  8.89806349248E-07  9.01449347304E-07
  9.13244692445E-07  9.25194378112E-07  9.37300423832E-07  9.49564875554E-07
  9.61989806000E-07  9.74577315013E-07  9.87329529912E-07  1.00024860585E-06
  1.01333672619E-06  1.02659610284E-06  1.04002897668E-06  1.05363761789E-06
  1.06742432636E-06  1.08139143209E-06  1.09554129554E-06  1.10987630808E-06
  1.12439889236E-06  1.13911150272E-06  1.15401662565E-06  1.16911678012E-06
  1.18441451812E-06  1.19991242499E-06  1.21561311991E-06  1.23151925635E-06
  1.24763352247E-06  1.26395864162E-06  1.28049737280E-06  1.29725251107E-06
  1.31422688811E-06  1.33142337263E-06  1.34884487086E-06  1.36649432708E-06
  1.38437472410E-06  1.40248908374E-06  1.42084046737E-06  1.43943197643E-06
  1.45826675291E-06  1.47734797995E-06  1.49667888231E-06  1.51626272697E-06
  1.53610282363E-06  1.55620252533E-06  1.57656522896E-06  1.59719437587E-06
  1.61809345242E-06  1.63926599062E-06  1.66071556868E-06  1.68244581162E-06
  1.70446039190E-06  1.72676303005E-06  1.74935749526E-06  1.77224760605E-06
  1.79543723090E-06  1.81893028892E-06  1.84273075049E-06  1.86684263794E-06
  1.89127002624E-06  1.91601704367E-06  1.94108787255E-06  1.96648674989E-06
  1.99221796818E-06  2.01828587605E-06  2.04469487903E-06  2.07144944031E-06
  2.09855408148E-06  2.12601338329E-06  2.15383198641E-06  2.18201459227E-06
  2.21056596379E-06  2.23949092621E-06  2.26879436793E-06  2.29848124131E-06
  2.32855656348E-06  2.35902541725E-06  2.38989295193E-06  2.42116438421E-06
  2.45284499904E-06  2.48494015050E-06  2.51745526277E-06  2.55039583097E-06
  2.58376742213E-06  2.61757567614E-06  2.65182630666E-06  2.68652510215E-06
  2.72167792677E-06  2.75729072144E-06  2.79336950480E-06  2.82992037426E-06
  2.86694950699E-06  2.90446316102E-06  2.94246767623E-06  2.98096947549E-06
  3.01997506568E-06  3.05949103884E-06  3.09952407327E-06  3.14008093465E-06
  3.18116847718E-06  3.22279364475E-06  3.26496347212E-06  3.30768508609E-06
  3.35096570671E-06  3.39481264851E-06  3.43923332173E-06  3.48423523356E-06
  3.52982598944E-06  3.57601329432E-06  3.62280495395E-06  3.67020887624E-06
  3.71823307257E-06  3.76688565914E-06  3.81617485835E-06  3.86610900019E-06
  3.91669652366E-06  3.96794597816E-06  4.01986602497E-06  4.07246543871E-06
  4.12575310881E-06  4.17973804099E-06  4.23442935886E-06  4.28983630536E-06
  4.34596824442E-06  4.40283466244E-06  4.46044517001E-06  4.51880950342E-06
  4.57793752640E-06  4.63783923172E-06  4.69852474290E-06  4.76000431595E-06
  4.82228834105E-06  4.88538734437E-06  4.94931198977E-06  5.01407308068E-06
  5.07968156187E-06  5.14614852134E-06  5.21348519215E-06  5.28170295437E-06
  5.35081333697E-06  5.42082801975E-06  5.49175883537E-06  5.56361777130E-06
  5.63641697188E-06  5.71016874034E-06  5.78488554091E-06  5.86058000090E-06
  5.93726491287E-06  6.01495323673E-06  6.09365810201E-06  6.17339281001E-06
  6.25417083609E-06  6.33600583192E-06  6.41891162783E-06  6.50290223507E-06
  6.58799184827E-06  6.67419484777E-06  6.76152580209E-06  6.84999947036E-06
  6.93963080484E-06  7.03043495345E-06  7.12242726230E-06  7.21562327831E-06
  7.31003875182E-06  7.40568963928E-06  7.50259210592E-06  7.60076252848E-06
  7.70021749800E-06  7.80097382260E-06  7.90304853035E-06  8.00645887211E-06
  8.11122232447E-06  8.21735659271E-06  8.32487961378E-06  8.43380955931E-06
  8.54416483873E-06  8.65596410235E-06  8.76922624450E-06  8.88397040675E-06
  9.00021598115E-06  9.11798261348E-06  9.23729020656E-06  9.35815892368E-06
  9.48060919193E-06  9.60466170570E-06  9.73033743015E-06  9.85765760479E-06
  9.98664374703E-06  1.01173176558E-05  1.02497014154E-05  1.03838173989E-05
  1.05196882722E-05  1.06573369979E-05  1.07967868390E-05  1.09380613627E-05
  1.10811844448E-05  1.12261802734E-05  1.13730733533E-05  1.15218885096E-05
  1.16726508924E-05  1.18253859811E-05  1.19801195882E-05  1.21368778639E-05
  1.22956873009E-05  1.24565747384E-05  1.26195673666E-05  1.27846927317E-05
  1.29519787403E-05  1.31214536642E-05  1.32931461450E-05  1.34670851991E-05
  1.36433002226E-05  1.38218209964E-05  1.40026776908E-05  1.41859008711E-05
  1.43715215023E-05  1.45595709549E-05  1.47500810097E-05  1.49430838633E-05
  1.51386121336E-05  1.53366988653E-05  1.55373775357E-05  1.57406820599E-05
  1.59466467968E-05  1.61553065550E-05  1.63666965984E-05  1.65808526525E-05
  1.67978109102E-05  1.70176080379E-05  1.72402811818E-05  1.74658679744E-05
  1.76944065401E-05  1.79259355027E-05  1.81604939911E-05  1.83981216461E-05
  1.86388586275E-05  1.88827456204E-05  1.91298238422E-05  1.93801350498E-05
  1.96337215464E-05  1.98906261886E-05  2.01508923940E-05  2.04145641481E-05
  2.06816860122E-05  2.09523031305E-05  2.12264612378E-05  2.15042066676E-05
  2.17855863596E-05  2.20706478674E-05  2.23594393673E-05  2.26520096657E-05
  2.29484082076E-05  2.32486850851E-05  2.35528910457E-05  2.38610775010E-05
  2.41732965352E-05  2.44896009140E-05  2.48100440936E-05  2.51346802298E-05
  2.54635641867E-05  2.57967515466E-05  2.61342986189E-05  2.64762624499E-05