<UPF version="2.0.1">
  <PP_HEADER generated='Generated using "atomic" code by A. Dal Corso  v.5.0.2 svn rev. 9415'
             is_paw="F"
             is_ultrasoft="F"
             pseudo_type="NC"
             arbitrary="4"
             />
</UPF>