<PP_INFO>
Generated using Andrea Dal Corso code (rrkj3)                                   
Andrea Dal Corso   Generation date:  9Aug2005                                   
Te                                                                              
    1        The Pseudo was generated with a Scalar-Relativistic Calculation
  2.40000000000E+00    Local Potential cutoff radius
nl pn  l   occ               Rcut            Rcut US             E pseu
5S  1  0  2.00      2.40000000000      2.40000000000     -1.40619358770
5S  1  0  0.00      2.40000000000      2.40000000000     -0.69543030525
5D  3  2  1.00      2.40000000000      2.40000000000     -0.04661365518
5P  2  1  3.00      2.40000000000      2.40000000000      0.00000000000
</PP_INFO>


<PP_HEADER>
   0                   Version Number
  Te                   Element                                               
   NC                  Norm - Conserving pseudopotential
    F                  Nonlinear Core Correction
 SLA  PW   PBE  PBE    PBE  Exchange-Correlation functional
    6.00000000000      Z valence
  -15.54533017755      Total energy
  0.0000000  0.0000000 Suggested cutoff for wfc and rho
    2                  Max angular momentum component
 1191                  Number of points in mesh
    3    3             Number of Wavefunctions, Number of Projectors
 Wavefunctions         nl  l   occ
                       5S  0  2.00
                       5P  1  3.00
                       5D  2  1.00
</PP_HEADER>


<PP_MESH>
  <PP_R>
  1.75361916453E-05  1.77567697821E-05  1.79801224503E-05  1.82062845493E-05
  1.84352914172E-05  1.86671788369E-05  1.89019830413E-05  1.91397407190E-05
  1.93804890202E-05  1.96242655621E-05  1.98711084355E-05  2.01210562100E-05
  2.03741479405E-05  2.06304231731E-05  2.08899219512E-05  2.11526848222E-05
  2.14187528432E-05  2.16881675879E-05  2.19609711529E-05  2.22372061643E-05
  2.25169157844E-05  2.28001437185E-05  2.30869342214E-05  2.33773321047E-05
  2.36713827437E-05  2.39691320845E-05  2.42706266509E-05  2.45759135520E-05
  2.48850404897E-05  2.51980557656E-05  2.55150082890E-05  2.58359475843E-05
  2.61609237990E-05  2.64899877113E-05  2.68231907380E-05  2.71605849429E-05
  2.75022230444E-05  2.78481584242E-05  2.81984451354E-05  2.85531379111E-05
  2.89122921726E-05  2.92759640387E-05  2.96442103336E-05  3.00170885968E-05
  3.03946570911E-05  3.07769748124E-05  3.11641014986E-05  3.15560976391E-05
  3.19530244841E-05  3.23549440542E-05  3.27619191500E-05  3.31740133625E-05
  3.35912910819E-05  3.40138175090E-05  3.44416586643E-05  3.48748813987E-05
  3.53135534044E-05  3.57577432246E-05  3.62075202650E-05  3.66629548040E-05
  3.71241180044E-05  3.75910819237E-05  3.80639195260E-05  3.85427046932E-05
  3.90275122365E-05  3.95184179079E-05  4.00154984125E-05  4.05188314201E-05
  4.10284955776E-05  4.15445705211E-05  4.20671368881E-05  4.25962763309E-05
  4.31320715286E-05  4.36746062001E-05  4.42239651178E-05  4.47802341200E-05
  4.53435001248E-05  4.59138511438E-05  4.64913762955E-05  4.70761658193E-05
  4.76683110897E-05  4.82679046308E-05  4.88750401302E-05  4.94898124540E-05
  5.01123176617E-05  5.07426530210E-05  5.13809170231E-05  5.20272093980E-05
  5.26816311302E-05  5.33442844744E-05  5.40152729716E-05  5.46947014652E-05
  5.53826761171E-05  5.60793044248E-05  5.67846952380E-05  5.74989587753E-05
  5.82222066418E-05  5.89545518467E-05  5.96961088202E-05  6.04469934321E-05
  6.12073230098E-05  6.19772163562E-05  6.27567937688E-05  6.35461770580E-05
  6.43454895668E-05  6.51548561891E-05  6.59744033903E-05  6.68042592263E-05
  6.76445533637E-05  6.84954171002E-05  6.93569833849E-05  7.02293868394E-05
  7.11127637785E-05  7.20072522316E-05  7.29129919644E-05  7.38301245005E-05
  7.47587931438E-05  7.56991430006E-05  7.66513210025E-05  7.76154759292E-05
  7.85917584320E-05  7.95803210569E-05  8.05813182689E-05  8.15949064759E-05
  8.26212440529E-05  8.36604913675E-05  8.47128108040E-05  8.57783667896E-05
  8.68573258195E-05  8.79498564832E-05  8.90561294910E-05  9.01763177002E-05
  9.13105961425E-05  9.24591420513E-05  9.36221348890E-05  9.47997563759E-05
  9.59921905175E-05  9.71996236342E-05  9.84222443899E-05  9.96602438214E-05
  1.00913815369E-04  1.02183154905E-04  1.03468460768E-04  1.04769933787E-04
  1.06087777322E-04  1.07422197288E-04  1.08773402191E-04  1.10141603160E-04
  1.11527013978E-04  1.12929851119E-04  1.14350333778E-04  1.15788683910E-04
  1.17245126260E-04  1.18719888399E-04  1.20213200762E-04  1.21725296682E-04
  1.23256412428E-04  1.24806787239E-04  1.26376663364E-04  1.27966286100E-04
  1.29575903829E-04  1.31205768056E-04  1.32856133451E-04  1.34527257888E-04
  1.36219402482E-04  1.37932831635E-04  1.39667813073E-04  1.41424617892E-04
  1.43203520595E-04  1.45004799139E-04  1.46828734978E-04  1.48675613106E-04
  1.50545722100E-04  1.52439354171E-04  1.54356805200E-04  1.56298374794E-04
  1.58264366327E-04  1.60255086990E-04  1.62270847836E-04  1.64311963832E-04
  1.66378753906E-04  1.68471541000E-04  1.70590652114E-04  1.72736418365E-04
  1.74909175033E-04  1.77109261615E-04  1.79337021879E-04  1.81592803919E-04
  1.83876960203E-04  1.86189847636E-04  1.88531827612E-04  1.90903266069E-04
  1.93304533551E-04  1.95736005258E-04  1.98198061115E-04  2.00691085823E-04
  2.03215468920E-04  2.05771604848E-04  2.08359893008E-04  2.10980737826E-04
  2.13634548812E-04  2.16321740632E-04  2.19042733164E-04  2.21797951568E-04
  2.24587826354E-04  2.27412793444E-04  2.30273294246E-04  2.33169775719E-04
  2.36102690444E-04  2.39072496694E-04  2.42079658508E-04  2.45124645762E-04
  2.48207934240E-04  2.51330005713E-04  2.54491348010E-04  2.57692455099E-04
  2.60933827158E-04  2.64215970658E-04  2.67539398441E-04  2.70904629800E-04
  2.74312190558E-04  2.77762613154E-04  2.81256436723E-04  2.84794207183E-04
  2.88376477317E-04  2.92003806862E-04  2.95676762597E-04  2.99395918427E-04
  3.03161855478E-04  3.06975162186E-04  3.10836434388E-04  3.14746275415E-04
  3.18705296188E-04  3.22714115312E-04  3.26773359172E-04  3.30883662036E-04
  3.35045666144E-04  3.39260021820E-04  3.43527387564E-04  3.47848430161E-04
  3.52223824783E-04  3.56654255095E-04  3.61140413359E-04  3.65683000548E-04
  3.70282726450E-04  3.74940309781E-04  3.79656478298E-04  3.84431968912E-04
  3.89267527804E-04  3.94163910539E-04  3.99121882187E-04  4.04142217440E-04
  4.09225700738E-04  4.14373126384E-04  4.19585298674E-04  4.24863032020E-04
  4.30207151080E-04  4.35618490882E-04  4.41097896960E-04  4.46646225482E-04
  4.52264343385E-04  4.57953128512E-04  4.63713469746E-04  4.69546267154E-04
  4.75452432122E-04  4.81432887499E-04  4.87488567745E-04  4.93620419071E-04
  4.99829399591E-04  5.06116479473E-04  5.12482641084E-04  5.18928879150E-04
  5.25456200909E-04  5.32065626269E-04  5.38758187966E-04  5.45534931725E-04
  5.52396916428E-04  5.59345214272E-04  5.66380910944E-04  5.73505105786E-04
  5.80718911968E-04  5.88023456661E-04  5.95419881215E-04  6.02909341337E-04
  6.10493007271E-04  6.18172063978E-04  6.25947711329E-04  6.33821164283E-04
  6.41793653083E-04  6.49866423448E-04  6.58040736763E-04  6.66317870282E-04
  6.74699117324E-04  6.83185787476E-04  6.91779206797E-04  7.00480718026E-04
  7.09291680793E-04  7.18213471828E-04  7.27247485179E-04  7.36395132430E-04
  7.45657842918E-04  7.55037063961E-04  7.64534261081E-04  7.74150918235E-04
  7.83888538046E-04  7.93748642035E-04  8.03732770864E-04  8.13842484574E-04
  8.24079362828E-04  8.34445005159E-04  8.44941031219E-04  8.55569081035E-04
  8.66330815261E-04  8.77227915439E-04  8.88262084263E-04  8.99435045845E-04
  9.10748545983E-04  9.22204352435E-04  9.33804255192E-04  9.45550066765E-04
  9.57443622459E-04  9.69486780667E-04  9.81681423157E-04  9.94029455366E-04
  1.00653280670E-03  1.01919343083E-03  1.03201330601E-03  1.04499443537E-03
  1.05813884724E-03  1.07144859545E-03  1.08492575969E-03  1.09857244578E-03
  1.11239078605E-03  1.12638293965E-03  1.14055109287E-03  1.15489745953E-03
  1.16942428125E-03  1.18413382791E-03  1.19902839788E-03  1.21411031848E-03
  1.22938194628E-03  1.24484566752E-03  1.26050389842E-03  1.27635908563E-03
  1.29241370653E-03  1.30867026971E-03  1.32513131528E-03  1.34179941532E-03
  1.35867717424E-03  1.37576722923E-03  1.39307225066E-03  1.41059494246E-03
  1.42833804258E-03  1.44630432344E-03  1.46449659228E-03  1.48291769170E-03
  1.50157050002E-03  1.52045793179E-03  1.53958293821E-03  1.55894850759E-03
  1.57855766584E-03  1.59841347695E-03  1.61851904341E-03  1.63887750676E-03
  1.65949204806E-03  1.68036588837E-03  1.70150228927E-03  1.72290455336E-03
  1.74457602480E-03  1.76652008978E-03  1.78874017713E-03  1.81123975876E-03
  1.83402235030E-03  1.85709151156E-03  1.88045084714E-03  1.90410400700E-03
  1.92805468698E-03  1.95230662942E-03  1.97686362376E-03  2.00172950705E-03
  2.02690816465E-03  2.05240353078E-03  2.07821958913E-03  2.10436037352E-03
  2.13082996851E-03  2.15763251001E-03  2.18477218598E-03  2.21225323704E-03
  2.24007995718E-03  2.26825669437E-03  2.29678785128E-03  2.32567788597E-03
  2.35493131256E-03  2.38455270195E-03  2.41454668256E-03  2.44491794100E-03
  2.47567122284E-03  2.50681133335E-03  2.53834313823E-03  2.57027156439E-03
  2.60260160070E-03  2.63533829882E-03  2.66848677390E-03  2.70205220548E-03
  2.73603983820E-03  2.77045498272E-03  2.80530301647E-03  2.84058938452E-03
  2.87631960044E-03  2.91249924714E-03  2.94913397779E-03  2.98622951661E-03
  3.02379165988E-03  3.06182627674E-03  3.10033931019E-03  3.13933677796E-03
  3.17882477349E-03  3.21880946686E-03  3.25929710576E-03  3.30029401646E-03
  3.34180660482E-03  3.38384135725E-03  3.42640484179E-03  3.46950370905E-03
  3.51314469332E-03  3.55733461360E-03  3.60208037465E-03  3.64738896809E-03
  3.69326747348E-03  3.73972305942E-03  3.78676298470E-03  3.83439459939E-03
  3.88262534605E-03  3.93146276082E-03  3.98091447464E-03  4.03098821444E-03
  4.08169180436E-03  4.13303316693E-03  4.18502032433E-03  4.23766139968E-03
  4.29096461824E-03  4.34493830875E-03  4.39959090472E-03  4.45493094571E-03
  4.51096707873E-03  4.56770805953E-03  4.62516275401E-03  4.68334013958E-03
  4.74224930657E-03  4.80189945967E-03  4.86229991932E-03  4.92346012323E-03
  4.98538962781E-03  5.04809810965E-03  5.11159536709E-03  5.17589132172E-03
  5.24099601988E-03  5.30691963435E-03  5.37367246580E-03  5.44126494450E-03
  5.50970763193E-03  5.57901122238E-03  5.64918654468E-03  5.72024456388E-03
  5.79219638293E-03  5.86505324444E-03  5.93882653246E-03  6.01352777421E-03
  6.08916864190E-03  6.16576095459E-03  6.24331667997E-03  6.32184793628E-03
  6.40136699419E-03  6.48188627872E-03  6.56341837117E-03  6.64597601110E-03
  6.72957209829E-03  6.81421969482E-03  6.89993202704E-03  6.98672248767E-03
  7.07460463791E-03  7.16359220952E-03  7.25369910698E-03  7.34493940969E-03
  7.43732737413E-03  7.53087743609E-03  7.62560421298E-03  7.72152250604E-03
  7.81864730270E-03  7.91699377891E-03  8.01657730151E-03  8.11741343062E-03
  8.21951792209E-03  8.32290672996E-03  8.42759600894E-03  8.53360211694E-03
  8.64094161764E-03  8.74963128304E-03  8.85968809613E-03  8.97112925352E-03
  9.08397216810E-03  9.19823447181E-03  9.31393401837E-03  9.43108888608E-03
  9.54971738060E-03  9.66983803790E-03  9.79146962707E-03  9.91463115328E-03
  1.00393418608E-02  1.01656212359E-02  1.02934890100E-02  1.04229651627E-02
  1.05540699249E-02  1.06868237820E-02  1.08212474771E-02  1.09573620141E-02
  1.10951886612E-02  1.12347489541E-02  1.13760646994E-02  1.15191579779E-02
  1.16640511483E-02  1.18107668505E-02  1.19593280089E-02  1.21097578368E-02
  1.22620798389E-02  1.24163178159E-02  1.25724958679E-02  1.27306383979E-02
  1.28907701161E-02  1.30529160433E-02  1.32171015152E-02  1.33833521861E-02
  1.35516940331E-02  1.37221533597E-02  1.38947568008E-02  1.40695313259E-02
  1.42465042439E-02  1.44257032071E-02  1.46071562159E-02  1.47908916225E-02
  1.49769381360E-02  1.51653248266E-02  1.53560811300E-02  1.55492368523E-02
  1.57448221746E-02  1.59428676573E-02  1.61434042456E-02  1.63464632736E-02
  1.65520764697E-02  1.67602759615E-02  1.69710942805E-02  1.71845643675E-02
  1.74007195776E-02  1.76195936856E-02  1.78412208909E-02  1.80656358233E-02
  1.82928735481E-02  1.85229695716E-02  1.87559598467E-02  1.89918807787E-02
  1.92307692308E-02  1.94726625296E-02  1.97175984716E-02  1.99656153285E-02
  2.02167518534E-02  2.04710472869E-02  2.07285413632E-02  2.09892743162E-02
  2.12532868861E-02  2.15206203252E-02  2.17913164051E-02  2.20654174225E-02
  2.23429662063E-02  2.26240061240E-02  2.29085810887E-02  2.31967355658E-02
  2.34885145800E-02  2.37839637224E-02  2.40831291575E-02  2.43860576306E-02
  2.46927964748E-02  2.50033936186E-02  2.53178975936E-02  2.56363575416E-02
  2.59588232226E-02  2.62853450226E-02  2.66159739612E-02  2.69507616998E-02
  2.72897605499E-02  2.76330234805E-02  2.79806041273E-02  2.83325568004E-02
  2.86889364931E-02  2.90497988905E-02  2.94152003781E-02  2.97851980507E-02
  3.01598497210E-02  3.05392139292E-02  3.09233499516E-02  3.13123178105E-02
  3.17061782827E-02  3.21049929098E-02  3.25088240073E-02  3.29177346747E-02
  3.33317888051E-02  3.37510510954E-02  3.41755870560E-02  3.46054630217E-02
  3.50407461614E-02  3.54815044889E-02  3.59278068737E-02  3.63797230514E-02
  3.68373236349E-02  3.73006801251E-02  3.77698649225E-02  3.82449513381E-02
  3.87260136052E-02  3.92131268907E-02  3.97063673070E-02  4.02058119241E-02
  4.07115387810E-02  4.12236268987E-02  4.17421562920E-02  4.22672079821E-02
  4.27988640095E-02  4.33372074464E-02  4.38823224102E-02  4.44342940761E-02
  4.49932086909E-02  4.55591535861E-02  4.61322171917E-02  4.67124890501E-02
  4.73000598299E-02  4.78950213404E-02  4.84974665453E-02  4.91074895781E-02
  4.97251857561E-02  5.03506515955E-02  5.09839848266E-02  5.16252844091E-02
  5.22746505473E-02  5.29321847060E-02  5.35979896263E-02  5.42721693415E-02
  5.49548291935E-02  5.56460758495E-02  5.63460173180E-02  5.70547629663E-02
  5.77724235374E-02  5.84991111673E-02  5.92349394023E-02  5.99800232171E-02
  6.07344790325E-02  6.14984247339E-02  6.22719796892E-02  6.30552647681E-02
  6.38484023603E-02  6.46515163954E-02  6.54647323614E-02  6.62881773250E-02
  6.71219799512E-02  6.79662705233E-02  6.88211809635E-02  6.96868448532E-02
  7.05633974542E-02  7.14509757296E-02  7.23497183654E-02  7.32597657918E-02
  7.41812602057E-02  7.51143455924E-02  7.60591677485E-02  7.70158743042E-02
  7.79846147470E-02  7.89655404445E-02  7.99588046684E-02  8.09645626182E-02
  8.19829714456E-02  8.30141902790E-02  8.40583802486E-02  8.51157045112E-02
  8.61863282757E-02  8.72704188294E-02  8.83681455636E-02  8.94796800003E-02
  9.06051958191E-02  9.17448688840E-02  9.28988772714E-02  9.40674012973E-02
  9.52506235461E-02  9.64487288985E-02  9.76619045612E-02  9.88903400950E-02
  1.00134227446E-01  1.01393760973E-01  1.02669137482E-01  1.03960556253E-01
  1.05268219072E-01  1.06592330264E-01  1.07933096725E-01  1.09290727952E-01
  1.10665436077E-01  1.12057435902E-01  1.13466944929E-01  1.14894183397E-01
  1.16339374316E-01  1.17802743498E-01  1.19284519598E-01  1.20784934147E-01
  1.22304221588E-01  1.23842619313E-01  1.25400367699E-01  1.26977710147E-01
  1.28574893121E-01  1.30192166183E-01  1.31829782037E-01  1.33487996561E-01
  1.35167068857E-01  1.36867261283E-01  1.38588839497E-01  1.40332072498E-01
  1.42097232672E-01  1.43884595827E-01  1.45694441243E-01  1.47527051712E-01
  1.49382713583E-01  1.51261716807E-01  1.53164354981E-01  1.55090925398E-01
  1.57041729088E-01  1.59017070867E-01  1.61017259387E-01  1.63042607181E-01
  1.65093430715E-01  1.67170050433E-01  1.69272790811E-01  1.71401980408E-01
  1.73557951912E-01  1.75741042200E-01  1.77951592383E-01  1.80189947864E-01
  1.82456458392E-01  1.84751478112E-01  1.87075365626E-01  1.89428484047E-01
  1.91811201054E-01  1.94223888952E-01  1.96666924727E-01  1.99140690109E-01
  2.01645571629E-01  2.04181960681E-01  2.06750253578E-01  2.09350851624E-01
  2.11984161166E-01  2.14650593665E-01  2.17350565755E-01  2.20084499314E-01
  2.22852821524E-01  2.25655964940E-01  2.28494367560E-01  2.31368472889E-01
  2.34278730014E-01  2.37225593666E-01  2.40209524300E-01  2.43230988161E-01
  2.46290457359E-01  2.49388409942E-01  2.52525329971E-01  2.55701707597E-01
  2.58918039135E-01  2.62174827143E-01  2.65472580501E-01  2.68811814490E-01
  2.72193050873E-01  2.75616817973E-01  2.79083650761E-01  2.82594090938E-01
  2.86148687017E-01  2.89747994410E-01  2.93392575517E-01  2.97082999810E-01
  3.00819843927E-01  3.04603691756E-01  3.08435134532E-01  3.12314770925E-01
  3.16243207136E-01  3.20221056993E-01  3.24248942040E-01  3.28327491645E-01
  3.32457343088E-01  3.36639141667E-01  3.40873540797E-01  3.45161202112E-01
  3.49502795566E-01  3.53898999544E-01  3.58350500960E-01  3.62857995370E-01
  3.67422187081E-01  3.72043789257E-01  3.76723524031E-01  3.81462122622E-01
  3.86260325446E-01  3.91118882232E-01  3.96038552138E-01  4.01020103875E-01
  4.06064315818E-01  4.11171976137E-01  4.16343882914E-01  4.21580844269E-01
  4.26883678489E-01  4.32253214153E-01  4.37690290260E-01  4.43195756366E-01
  4.48770472710E-01  4.54415310354E-01  4.60131151315E-01  4.65918888704E-01
  4.71779426867E-01  4.77713681526E-01  4.83722579920E-01  4.89807060950E-01
  4.95968075331E-01  5.02206585732E-01  5.08523566934E-01  5.14920005978E-01
  5.21396902320E-01  5.27955267990E-01  5.34596127744E-01  5.41320519230E-01
  5.48129493149E-01  5.55024113417E-01  5.62005457331E-01  5.69074615742E-01
  5.76232693219E-01  5.83480808227E-01  5.90820093298E-01  5.98251695211E-01
  6.05776775168E-01  6.13396508979E-01  6.21112087243E-01  6.28924715533E-01
  6.36835614590E-01  6.44846020508E-01  6.52957184928E-01  6.61170375237E-01
  6.69486874762E-01  6.77907982973E-01  6.86435015686E-01  6.95069305266E-01
  7.03812200840E-01  7.12665068502E-01  7.21629291531E-01  7.30706270605E-01
  7.39897424020E-01  7.49204187913E-01  7.58628016485E-01  7.68170382227E-01
  7.77832776155E-01  7.87616708037E-01  7.97523706631E-01  8.07555319928E-01
  8.17713115386E-01  8.27998680182E-01  8.38413621456E-01  8.48959566565E-01
  8.59638163333E-01  8.70451080313E-01  8.81400007045E-01  8.92486654321E-01
  9.03712754453E-01  9.15080061542E-01  9.26590351752E-01  9.38245423589E-01
  9.50047098183E-01  9.61997219569E-01  9.74097654978E-01  9.86350295127E-01
  9.98757054516E-01  1.01131987173E+00  1.02404070973E+00  1.03692155617E+00
  1.04996442371E+00  1.06317135034E+00  1.07654439965E+00  1.09008566121E+00
  1.10379725087E+00  1.11768131110E+00  1.13174001131E+00  1.14597554820E+00
  1.16039014610E+00  1.17498605732E+00  1.18976556251E+00  1.20473097098E+00
  1.21988462112E+00  1.23522888071E+00  1.25076614733E+00  1.26649884870E+00
  1.28242944309E+00  1.29856041970E+00  1.31489429901E+00  1.33143363323E+00
  1.34818100667E+00  1.36513903613E+00  1.38231037134E+00  1.39969769536E+00
  1.41730372499E+00  1.43513121122E+00  1.45318293961E+00  1.47146173080E+00
  1.48997044087E+00  1.50871196186E+00  1.52768922216E+00  1.54690518701E+00
  1.56636285894E+00  1.58606527826E+00  1.60601552350E+00  1.62621671194E+00
  1.64667200004E+00  1.66738458400E+00  1.68835770019E+00  1.70959462570E+00
  1.73109867886E+00  1.75287321970E+00  1.77492165055E+00  1.79724741652E+00
  1.81985400606E+00  1.84274495148E+00  1.86592382956E+00  1.88939426203E+00
  1.91315991619E+00  1.93722450549E+00  1.96159179005E+00  1.98626557733E+00
  2.01124972264E+00  2.03654812981E+00  2.06216475177E+00  2.08810359117E+00
  2.11436870100E+00  2.14096418525E+00  2.16789419950E+00  2.19516295163E+00
  2.22277470245E+00  2.25073376633E+00  2.27904451194E+00  2.30771136289E+00
  2.33673879844E+00  2.36613135418E+00  2.39589362275E+00  2.42603025458E+00
  2.45654595858E+00  2.48744550287E+00  2.51873371559E+00  2.55041548558E+00
  2.58249576317E+00  2.61497956098E+00  2.64787195467E+00  2.68117808374E+00
  2.71490315234E+00  2.74905243008E+00  2.78363125285E+00  2.81864502367E+00
  2.85409921351E+00  2.88999936216E+00  2.92635107909E+00  2.96316004433E+00
  3.00043200935E+00  3.03817279798E+00  3.07638830730E+00  3.11508450854E+00
  3.15426744808E+00  3.19394324832E+00  3.23411810869E+00  3.27479830660E+00
  3.31599019840E+00  3.35770022042E+00  3.39993488993E+00  3.44270080619E+00
  3.48600465145E+00  3.52985319202E+00  3.57425327935E+00  3.61921185101E+00
  3.66473593190E+00  3.71083263523E+00  3.75750916370E+00  3.80477281063E+00
  3.85263096105E+00  3.90109109290E+00  3.95016077817E+00  3.99984768409E+00
  4.05015957436E+00  4.10110431030E+00  4.15268985213E+00  4.20492426020E+00
  4.25781569623E+00  4.31137242464E+00  4.36560281376E+00  4.42051533719E+00
  4.47611857515E+00  4.53242121573E+00  4.58943205636E+00  4.64716000508E+00
  4.70561408200E+00  4.76480342070E+00  4.82473726963E+00  4.88542499357E+00
  4.94687607511E+00  5.00910011610E+00  5.07210683917E+00  5.13590608926E+00
  5.20050783512E+00  5.26592217091E+00  5.33215931775E+00  5.39922962534E+00
  5.46714357354E+00  5.53591177404E+00  5.60554497203E+00  5.67605404781E+00
  5.74745001860E+00  5.81974404014E+00  5.89294740853E+00  5.96707156194E+00
  6.04212808242E+00  6.11812869770E+00  6.19508528305E+00  6.27300986307E+00
  6.35191461365E+00  6.43181186381E+00  6.51271409765E+00  6.59463395633E+00
  6.67758423998E+00  6.76157790975E+00  6.84662808982E+00  6.93274806947E+00
  7.01995130510E+00  7.10825142241E+00  7.19766221847E+00  7.28819766389E+00
  7.37987190502E+00  7.47269926615E+00  7.56669425175E+00  7.66187154872E+00
  7.75824602871E+00  7.85583275042E+00  7.95464696198E+00  8.05470410332E+00
  8.15601980855E+00  8.25860990848E+00  8.36249043301E+00  8.46767761368E+00
  8.57418788620E+00  8.68203789303E+00  8.79124448594E+00  8.90182472869E+00
  9.01379589966E+00  9.12717549458E+00  9.24198122924E+00  9.35823104228E+00
  9.47594309795E+00  9.59513578901E+00  9.71582773955E+00  9.83803780795E+00
  9.96178508978E+00  1.00870889208E+01  1.02139688800E+01  1.03424447926E+01
  1.04725367332E+01  1.06042650290E+01  1.07376502628E+01  1.08727132763E+01
  1.10094751733E+01  1.11479573233E+01  1.12881813643E+01  1.14301692065E+01
  1.15739430360E+01  1.17195253176E+01  1.18669387989E+01  1.20162065135E+01
  1.21673517849E+01  1.23203982297E+01  1.24753697617E+01  1.26322905957E+01
  1.27911852509E+01  1.29520785547E+01  1.31149956471E+01  1.32799619843E+01
  1.34470033426E+01  1.36161458225E+01  1.37874158529E+01  1.39608401951E+01
  1.41364459470E+01  1.43142605473E+01  1.44943117799E+01  1.46766277782E+01
  1.48612370295E+01  1.50481683793E+01  1.52374510361E+01  1.54291145755E+01
  1.56231889455E+01  1.58197044706E+01  1.60186918567E+01  1.62201821959E+01
  1.64242069717E+01  1.66307980631E+01  1.68399877507E+01  1.70518087205E+01
  1.72662940702E+01  1.74834773134E+01  1.77033923856E+01  1.79260736488E+01
  1.81515558975E+01  1.83798743638E+01  1.86110647228E+01  1.88451630985E+01
  1.90822060693E+01  1.93222306737E+01  1.95652744158E+01  1.98113752720E+01
  2.00605716958E+01  2.03129026247E+01  2.05684074860E+01  2.08271262029E+01
  2.10890992005E+01  2.13543674129E+01  2.16229722886E+01  2.18949557977E+01
  2.21703604381E+01  2.24492292426E+01  2.27316057847E+01  2.30175341865E+01
  2.33070591249E+01  2.36002258386E+01  2.38970801357E+01  2.41976684001E+01
  2.45020375995E+01  2.48102352921E+01  2.51223096344E+01  2.54383093887E+01
  2.57582839307E+01  2.60822832569E+01  2.64103579929E+01  2.67425594011E+01
  2.70789393886E+01  2.74195505154E+01  2.77644460028E+01  2.81136797414E+01
  2.84673062997E+01  2.88253809325E+01  2.91879595897E+01  2.95550989250E+01
  2.99268563046E+01  3.03032898164E+01  3.06844582788E+01  3.10704212503E+01
  3.14612390384E+01  3.18569727090E+01  3.22576840965E+01  3.26634358127E+01
  3.30742912572E+01  3.34903146270E+01  3.39115709267E+01  3.43381259782E+01
  3.47700464318E+01  3.52073997760E+01  3.56502543479E+01  3.60986793446E+01
  3.65527448335E+01  3.70125217630E+01  3.74780819744E+01  3.79494982124E+01
  3.84268441366E+01  3.89101943334E+01  3.93996243273E+01  3.98952105926E+01
  4.03970305658E+01  4.09051626571E+01  4.14196862634E+01  4.19406817799E+01
  4.24682306132E+01  4.30024151940E+01  4.35433189896E+01  4.40910265175E+01
  4.46456233579E+01  4.52071961678E+01  4.57758326941E+01  4.63516217874E+01
  4.69346534159E+01  4.75250186794E+01  4.81228098239E+01  4.87281202552E+01
  4.93410445545E+01  4.99616784924E+01  5.05901190442E+01
  </PP_R>
  <PP_RAB>
  2.19202395566E-07  2.21959622276E-07  2.24751530629E-07  2.27578556866E-07
  2.30441142715E-07  2.33339735462E-07  2.36274788017E-07  2.39246758988E-07
  2.42256112752E-07  2.45303319527E-07  2.48388855444E-07  2.51513202626E-07
  2.54676849257E-07  2.57880289664E-07  2.61124024390E-07  2.64408560277E-07
  2.67734410540E-07  2.71102094848E-07  2.74512139411E-07  2.77965077054E-07
  2.81461447306E-07  2.85001796481E-07  2.88586677767E-07  2.92216651309E-07
  2.95892284297E-07  2.99614151056E-07  3.03382833136E-07  3.07198919401E-07
  3.11063006122E-07  3.14975697070E-07  3.18937603612E-07  3.22949344804E-07
  3.27011547487E-07  3.31124846391E-07  3.35289884225E-07  3.39507311786E-07
  3.43777788055E-07  3.48101980303E-07  3.52480564193E-07  3.56914223889E-07
  3.61403652158E-07  3.65949550483E-07  3.70552629170E-07  3.75213607460E-07
  3.79933213639E-07  3.84712185155E-07  3.89551268733E-07  3.94451220489E-07
  3.99412806051E-07  4.04436800677E-07  4.09523989376E-07  4.14675167031E-07
  4.19891138524E-07  4.25172718863E-07  4.30520733303E-07  4.35936017484E-07
  4.41419417555E-07  4.46971790308E-07  4.52594003312E-07  4.58286935050E-07
  4.64051475055E-07  4.69888524046E-07  4.75798994075E-07  4.81783808665E-07
  4.87843902956E-07  4.93980223848E-07  5.00193730156E-07  5.06485392752E-07
  5.12856194721E-07  5.19307131513E-07  5.25839211102E-07  5.32453454137E-07
  5.39150894107E-07  5.45932577502E-07  5.52799563972E-07  5.59752926499E-07
  5.66793751560E-07  5.73923139298E-07  5.81142203693E-07  5.88452072741E-07
  5.95853888622E-07  6.03348807885E-07  6.10938001627E-07  6.18622655675E-07
  6.26403970771E-07  6.34283162762E-07  6.42261462788E-07  6.50340117474E-07
  6.58520389127E-07  6.66803555930E-07  6.75190912146E-07  6.83683768315E-07
  6.92283451464E-07  7.00991305310E-07  7.09808690474E-07  7.18736984691E-07
  7.27777583023E-07  7.36931898083E-07  7.46201360252E-07  7.55587417902E-07
  7.65091537623E-07  7.74715204453E-07  7.84459922110E-07  7.94327213225E-07
  8.04318619584E-07  8.14435702364E-07  8.24680042379E-07  8.35053240329E-07
  8.45556917046E-07  8.56192713752E-07  8.66962292311E-07  8.77867335493E-07
  8.88909547231E-07  9.00090652895E-07  9.11412399555E-07  9.22876556256E-07
  9.34484914297E-07  9.46239287507E-07  9.58141512531E-07  9.70193449115E-07
  9.82396980400E-07  9.94754013212E-07  1.00726647836E-06  1.01993633095E-06
  1.03276555066E-06  1.04575614209E-06  1.05891013505E-06  1.07222958487E-06
  1.08571657274E-06  1.09937320604E-06  1.11320161864E-06  1.12720397125E-06
  1.14138245178E-06  1.15573927564E-06  1.17027668611E-06  1.18499695470E-06
  1.19990238147E-06  1.21499529543E-06  1.23027805487E-06  1.24575304777E-06
  1.26142269211E-06  1.27728943632E-06  1.29335575959E-06  1.30962417234E-06
  1.32609721653E-06  1.34277746611E-06  1.35966752739E-06  1.37677003950E-06
  1.39408767472E-06  1.41162313898E-06  1.42937917223E-06  1.44735854888E-06
  1.46556407825E-06  1.48399860499E-06  1.50266500953E-06  1.52156620853E-06
  1.54070515535E-06  1.56008484049E-06  1.57970829205E-06  1.59957857625E-06
  1.61969879786E-06  1.64007210070E-06  1.66070166814E-06  1.68159072359E-06
  1.70274253102E-06  1.72416039543E-06  1.74584766342E-06  1.76780772365E-06
  1.79004400743E-06  1.81255998924E-06  1.83535918723E-06  1.85844516382E-06
  1.88182152626E-06  1.90549192713E-06  1.92946006500E-06  1.95372968493E-06
  1.97830457909E-06  2.00318858737E-06  2.02838559795E-06  2.05389954789E-06
  2.07973442383E-06  2.10589426249E-06  2.13238315143E-06  2.15920522956E-06
  2.18636468791E-06  2.21386577018E-06  2.24171277349E-06  2.26991004898E-06
  2.29846200253E-06  2.32737309545E-06  2.35664784515E-06  2.38629082587E-06
  2.41630666938E-06  2.44670006573E-06  2.47747576394E-06  2.50863857278E-06
  2.54019336150E-06  2.57214506060E-06  2.60449866260E-06  2.63725922282E-06
  2.67043186015E-06  2.70402175790E-06  2.73803416455E-06  2.77247439460E-06
  2.80734782942E-06  2.84265991805E-06  2.87841617808E-06  2.91462219649E-06
  2.95128363055E-06  2.98840620867E-06  3.02599573135E-06  3.06405807202E-06
  3.10259917800E-06  3.14162507141E-06  3.18114185013E-06  3.22115568874E-06
  3.26167283947E-06  3.30269963322E-06  3.34424248051E-06  3.38630787250E-06
  3.42890238197E-06  3.47203266442E-06  3.51570545904E-06  3.55992758978E-06
  3.60470596646E-06  3.65004758578E-06  3.69595953246E-06  3.74244898033E-06
  3.78952319347E-06  3.83718952733E-06  3.88545542985E-06  3.93432844269E-06
  3.98381620235E-06  4.03392644139E-06  4.08466698966E-06  4.13604577545E-06
  4.18807082680E-06  4.24075027274E-06  4.29409234455E-06  4.34810537701E-06
  4.40279780979E-06  4.45817818869E-06  4.51425516699E-06  4.57103750685E-06
  4.62853408062E-06  4.68675387226E-06  4.74570597872E-06  4.80539961140E-06
  4.86584409755E-06  4.92704888173E-06  4.98902352733E-06  5.05177771801E-06
  5.11532125923E-06  5.17966407980E-06  5.24481623342E-06  5.31078790026E-06
  5.37758938850E-06  5.44523113603E-06  5.51372371200E-06  5.58307781852E-06
  5.65330429231E-06  5.72441410640E-06  5.79641837183E-06  5.86932833943E-06
  5.94315540152E-06  6.01791109374E-06  6.09360709681E-06  6.17025523838E-06
  6.24786749489E-06  6.32645599341E-06  6.40603301355E-06  6.48661098938E-06
  6.56820251137E-06  6.65082032837E-06  6.73447734957E-06  6.81918664657E-06
  6.90496145535E-06  6.99181517840E-06  7.07976138680E-06  7.16881382233E-06
  7.25898639960E-06  7.35029320826E-06  7.44274851519E-06  7.53636676671E-06