<PP_INFO>
Generated using Vanderbilt code, version   7  3  5                              
Author: unknown    Generation date:   20    6 2004                              
Automatically converted from original format                                    
    1        The Pseudo was generated with a Scalar-Relativistic Calculation
  1.95000000000E+00    Local Potential cutoff radius
nl pn  l   occ               Rcut            Rcut US             E pseu
3D  3  2 10.00     10.00000000000      2.00000000000     -0.91286675882
4S  4  0  1.00     10.00000000000      2.00000000000     -0.54888186367
4P  4  1  1.00     10.00000000000      2.10000000000     -0.15649871639
</PP_INFO>


<PP_HEADER>
   0                   Version Number
  Zn                   Element
   US                  Ultrasoft pseudopotential
    T                  Nonlinear Core Correction
 SLA  PW   GGX  GGC    PW91 Exchange-Correlation functional
   12.00000000000      Z valence
 -148.89264200550      Total energy
  0.0000000  0.0000000 Suggested cutoff for wfc and rho
    2                  Max angular momentum component
  943                  Number of points in mesh
    3    6             Number of Wavefunctions, Number of Projectors
 Wavefunctions         nl  l   occ
                       3D  2 10.00
                       4S  0  1.00
                       4P  1  1.00
</PP_HEADER>


<PP_MESH>
  <PP_R>
  0.00000000000E+00  5.10846319546E-07  1.03027809112E-06  1.55843960465E-06
  2.09547757508E-06  2.64154118307E-06  3.19678211647E-06  3.76135461243E-06
  4.33541550030E-06  4.91912424510E-06  5.51264299192E-06  6.11613661089E-06
  6.72977274301E-06  7.35372184670E-06  7.98815724517E-06  8.63325517456E-06
  9.28919483287E-06  9.95615842980E-06  1.06343312373E-05  1.13239016411E-05
  1.20250611928E-05  1.27380046637E-05  1.34629300981E-05  1.42000388688E-05
  1.49495357331E-05  1.57116288893E-05  1.64865300349E-05  1.72744544251E-05
  1.80756209330E-05  1.88902521099E-05  1.97185742474E-05  2.05608174405E-05
  2.14172156510E-05  2.22880067727E-05  2.31734326977E-05  2.40737393834E-05
  2.49891769206E-05  2.59199996036E-05  2.68664660001E-05  2.78288390236E-05
  2.88073860060E-05  2.98023787723E-05  3.08140937158E-05  3.18428118749E-05
  3.28888190112E-05  3.39524056891E-05  3.50338673561E-05  3.61335044251E-05
  3.72516223580E-05  3.83885317504E-05  3.95445484175E-05  4.07199934828E-05
  4.19151934661E-05  4.31304803753E-05  4.43661917977E-05  4.56226709946E-05
  4.69002669960E-05  4.81993346979E-05  4.95202349607E-05  5.08633347098E-05
  5.22290070371E-05  5.36176313046E-05  5.50295932504E-05  5.64652850951E-05
  5.79251056513E-05  5.94094604341E-05  6.09187617738E-05  6.24534289304E-05
  6.40138882103E-05  6.56005730845E-05  6.72139243088E-05  6.88543900468E-05
  7.05224259940E-05  7.22184955045E-05  7.39430697195E-05  7.56966276985E-05
  7.74796565523E-05  7.92926515781E-05  8.11361163972E-05  8.30105630952E-05
  8.49165123637E-05  8.68544936453E-05  8.88250452805E-05  9.08287146576E-05
  9.28660583643E-05  9.49376423424E-05  9.70440420452E-05  9.91858425974E-05
  1.01363638957E-04  1.03578036082E-04  1.05829649097E-04  1.08119103464E-04
  1.10447035157E-04  1.12814090840E-04  1.15220928042E-04  1.17668215346E-04
  1.20156632569E-04  1.22686870953E-04  1.25259633360E-04  1.27875634462E-04
  1.30535600943E-04  1.33240271699E-04  1.35990398045E-04  1.38786743924E-04
  1.41630086115E-04  1.44521214454E-04  1.47460932052E-04  1.50450055514E-04
  1.53489415174E-04  1.56579855315E-04  1.59722234415E-04  1.62917425376E-04
  1.66166315772E-04  1.69469808094E-04  1.72828819999E-04  1.76244284567E-04
  1.79717150562E-04  1.83248382690E-04  1.86838961872E-04  1.90489885514E-04
  1.94202167784E-04  1.97976839897E-04  2.01814950397E-04  2.05717565450E-04
  2.09685769141E-04  2.13720663774E-04  2.17823370179E-04  2.21995028024E-04
  2.26236796128E-04  2.30549852789E-04  2.34935396105E-04  2.39394644311E-04
  2.43928836116E-04  2.48539231046E-04  2.53227109796E-04  2.57993774586E-04
  2.62840549518E-04  2.67768780952E-04  2.72779837871E-04  2.77875112269E-04
  2.83056019531E-04  2.88323998833E-04  2.93680513535E-04  2.99127051593E-04
  3.04665125969E-04  3.10296275053E-04  3.16022063089E-04  3.21844080610E-04
  3.27763944881E-04  3.33783300347E-04  3.39903819090E-04  3.46127201292E-04
  3.52455175712E-04  3.58889500161E-04  3.65431961993E-04  3.72084378599E-04
  3.78848597917E-04  3.85726498940E-04  3.92719992239E-04  3.99831020498E-04
  4.07061559046E-04  4.14413616415E-04  4.21889234888E-04  4.29490491076E-04
  4.37219496486E-04  4.45078398115E-04  4.53069379041E-04  4.61194659032E-04
  4.69456495164E-04  4.77857182443E-04  4.86399054448E-04  4.95084483977E-04
  5.03915883703E-04  5.12895706851E-04  5.22026447874E-04  5.31310643146E-04
  5.40750871672E-04  5.50349755798E-04  5.60109961941E-04  5.70034201334E-04
  5.80125230773E-04  5.90385853386E-04  6.00818919413E-04  6.11427326994E-04
  6.22214022979E-04  6.33182003739E-04  6.44334316008E-04  6.55674057722E-04
  6.67204378881E-04  6.78928482427E-04  6.90849625131E-04  7.02971118498E-04
  7.15296329687E-04  7.27828682447E-04  7.40571658069E-04  7.53528796348E-04
  7.66703696575E-04  7.80100018528E-04  7.93721483493E-04  8.07571875299E-04
  8.21655041365E-04  8.35974893773E-04  8.50535410352E-04  8.65340635783E-04
  8.80394682725E-04  8.95701732952E-04  9.11266038523E-04  9.27091922956E-04
  9.43183782431E-04  9.59546087013E-04  9.76183381892E-04  9.93100288645E-04
  1.01030150652E-03  1.02779181375E-03  1.04557606886E-03  1.06365921204E-03
  1.08204626649E-03  1.10074233986E-03  1.11975262561E-03  1.13908240451E-03
  1.15873704606E-03  1.17872201000E-03  1.19904284786E-03  1.21970520442E-03
  1.24071481938E-03  1.26207752887E-03  1.28379926712E-03  1.30588606807E-03
  1.32834406709E-03  1.35117950267E-03  1.37439871812E-03  1.39800816338E-03
  1.42201439678E-03  1.44642408686E-03  1.47124401427E-03  1.49648107357E-03
  1.52214227523E-03  1.54823474752E-03  1.57476573852E-03  1.60174261812E-03
  1.62917288008E-03  1.65706414408E-03  1.68542415787E-03  1.71426079943E-03
  1.74358207911E-03  1.77339614191E-03  1.80371126970E-03  1.83453588353E-03
  1.86587854602E-03  1.89774796364E-03  1.93015298923E-03  1.96310262438E-03
  1.99660602199E-03  2.03067248877E-03  2.06531148784E-03  2.10053264137E-03
  2.13634573325E-03  2.17276071178E-03  2.20978769247E-03  2.24743696084E-03
  2.28571897524E-03  2.32464436983E-03  2.36422395746E-03  2.40446873271E-03
  2.44538987496E-03  2.48699875144E-03  2.52930692045E-03  2.57232613452E-03
  2.61606834372E-03  2.66054569893E-03  2.70577055528E-03  2.75175547550E-03
  2.79851323348E-03  2.84605681779E-03  2.89439943529E-03  2.94355451479E-03
  2.99353571080E-03  3.04435690729E-03  3.09603222161E-03  3.14857600833E-03
  3.20200286330E-03  3.25632762763E-03  3.31156539191E-03  3.36773150030E-03
  3.42484155487E-03  3.48291141988E-03  3.54195722623E-03  3.60199537590E-03
  3.66304254656E-03  3.72511569614E-03  3.78823206757E-03  3.85240919360E-03
  3.91766490161E-03  3.98401731861E-03  4.05148487625E-03  4.12008631595E-03
  4.18984069412E-03  4.26076738741E-03  4.33288609814E-03  4.40621685975E-03
  4.48078004237E-03  4.55659635847E-03  4.63368686863E-03  4.71207298737E-03
  4.79177648911E-03  4.87281951425E-03  4.95522457524E-03  5.03901456291E-03
  5.12421275279E-03  5.21084281160E-03  5.29892880380E-03  5.38849519829E-03
  5.47956687520E-03  5.57216913280E-03  5.66632769453E-03  5.76206871616E-03
  5.85941879303E-03  5.95840496746E-03  6.05905473624E-03  6.16139605828E-03
  6.26545736240E-03  6.37126755517E-03  6.47885602900E-03  6.58825267027E-03
  6.69948786764E-03  6.81259252048E-03  6.92759804748E-03  7.04453639537E-03
  7.16344004777E-03  7.28434203424E-03  7.40727593943E-03  7.53227591245E-03
  7.65937667631E-03  7.78861353761E-03  7.92002239629E-03  8.05363975567E-03
  8.18950273254E-03  8.32764906748E-03  8.46811713537E-03  8.61094595601E-03
  8.75617520501E-03  8.90384522474E-03  9.05399703562E-03  9.20667234743E-03
  9.36191357098E-03  9.51976382982E-03  9.68026697226E-03  9.84346758355E-03
  1.00094109982E-02  1.01781433127E-02  1.03497113983E-02  1.05241629138E-02
  1.07015463191E-02  1.08819108885E-02  1.10653067244E-02  1.12517847714E-02
  1.14413968300E-02  1.16341955715E-02  1.18302345524E-02  1.20295682291E-02
  1.22322519735E-02  1.24383420879E-02  1.26478958208E-02  1.28609713830E-02
  1.30776279634E-02  1.32979257460E-02  1.35219259258E-02  1.37496907267E-02
  1.39812834181E-02  1.42167683328E-02  1.44562108847E-02  1.46996775873E-02
  1.49472360717E-02  1.51989551058E-02  1.54549046132E-02  1.57151556925E-02
  1.59797806375E-02  1.62488529567E-02  1.65224473942E-02  1.68006399502E-02
  1.70835079022E-02  1.73711298265E-02  1.76635856199E-02  1.79609565219E-02
  1.82633251376E-02  1.85707754601E-02  1.88833928944E-02  1.92012642805E-02
  1.95244779181E-02  1.98531235910E-02  2.01872925916E-02  2.05270777468E-02
  2.08725734436E-02  2.12238756552E-02  2.15810819679E-02  2.19442916078E-02
  2.23136054690E-02  2.26891261409E-02  2.30709579374E-02  2.34592069251E-02
  2.38539809536E-02  2.42553896849E-02  2.46635446239E-02  2.50785591496E-02
  2.55005485466E-02  2.59296300369E-02  2.63659228124E-02  2.68095480684E-02
  2.72606290371E-02  2.77192910215E-02  2.81856614308E-02  2.86598698153E-02
  2.91420479026E-02  2.96323296341E-02  3.01308512023E-02  3.06377510888E-02
  3.11531701022E-02  3.16772514178E-02  3.22101406172E-02  3.27519857285E-02
  3.33029372678E-02  3.38631482807E-02  3.44327743849E-02  3.50119738137E-02
  3.56009074594E-02  3.61997389185E-02  3.68086345370E-02  3.74277634564E-02
  3.80572976610E-02  3.86974120254E-02  3.93482843633E-02  4.00100954768E-02
  4.06830292065E-02  4.13672724828E-02  4.20630153776E-02  4.27704511574E-02
  4.34897763366E-02  4.42211907325E-02  4.49648975203E-02  4.57211032902E-02
  4.64900181040E-02  4.72718555543E-02  4.80668328230E-02  4.88751707424E-02
  4.96970938559E-02  5.05328304808E-02  5.13826127715E-02  5.22466767842E-02
  5.31252625421E-02  5.40186141026E-02  5.49269796245E-02  5.58506114375E-02
  5.67897661119E-02  5.77447045301E-02  5.87156919588E-02  5.97029981230E-02
  6.07068972808E-02  6.17276682996E-02  6.27655947333E-02  6.38209649016E-02
  6.48940719696E-02  6.59852140296E-02  6.70946941835E-02  6.82228206274E-02
  6.93699067371E-02  7.05362711549E-02  7.17222378785E-02  7.29281363506E-02
  7.41543015509E-02  7.54010740886E-02  7.66688002976E-02  7.79578323320E-02
  7.92685282647E-02  8.06012521863E-02  8.19563743064E-02  8.33342710566E-02
  8.47353251947E-02  8.61599259117E-02  8.76084689389E-02  8.90813566589E-02
  9.05789982164E-02  9.21018096329E-02  9.36502139210E-02  9.52246412033E-02
  9.68255288305E-02  9.84533215042E-02  1.00108471399E-01  1.01791438290E-01
  1.03502689679E-01  1.05242700924E-01  1.07011955373E-01  1.08810944497E-01
  1.10640168026E-01  1.12500134090E-01  1.14391359358E-01  1.16314369183E-01
  1.18269697747E-01  1.20257888208E-01  1.22279492855E-01  1.24335073258E-01
  1.26425200424E-01  1.28550454958E-01  1.30711427221E-01  1.32908717499E-01
  1.35142936163E-01  1.37414703843E-01  1.39724651603E-01  1.42073421107E-01
  1.44461664807E-01  1.46890046121E-01  1.49359239612E-01  1.51869931186E-01
  1.54422818271E-01  1.57018610021E-01  1.59658027504E-01  1.62341803909E-01
  1.65070684748E-01  1.67845428059E-01  1.70666804623E-01  1.73535598174E-01
  1.76452605617E-01  1.79418637251E-01  1.82434516992E-01  1.85501082605E-01
  1.88619185932E-01  1.91789693135E-01  1.95013484928E-01  1.98291456832E-01
  2.01624519415E-01  2.05013598548E-01  2.08459635666E-01  2.11963588021E-01
  2.15526428958E-01  2.19149148176E-01  2.22832752010E-01  2.26578263708E-01
  2.30386723712E-01  2.34259189954E-01  2.38196738143E-01  2.42200462067E-01
  2.46271473899E-01  2.50410904500E-01  2.54619903740E-01  2.58899640811E-01
  2.63251304558E-01  2.67676103803E-01  2.72175267687E-01  2.76750046005E-01
  2.81401709559E-01  2.86131550507E-01  2.90940882725E-01  2.95831042169E-01
  3.00803387249E-01  3.05859299203E-01  3.11000182483E-01  3.16227465146E-01
  3.21542599249E-01  3.26947061252E-01  3.32442352428E-01  3.38029999284E-01
  3.43711553979E-01  3.49488594759E-01  3.55362726395E-01  3.61335580628E-01
  3.67408816623E-01  3.73584121428E-01  3.79863210446E-01  3.86247827909E-01
  3.92739747362E-01  3.99340772158E-01  4.06052735958E-01  4.12877503239E-01
  4.19816969814E-01  4.26873063357E-01  4.34047743939E-01  4.41343004573E-01
  4.48760871768E-01  4.56303406090E-01  4.63972702735E-01  4.71770892114E-01
  4.79700140439E-01  4.87762650332E-01  4.95960661430E-01  5.04296451011E-01
  5.12772334626E-01  5.21390666741E-01  5.30153841393E-01  5.39064292853E-01
  5.48124496304E-01  5.57336968528E-01  5.66704268604E-01  5.76228998620E-01
  5.85913804395E-01  5.95761376216E-01  6.05774449583E-01  6.15955805968E-01
  6.26308273593E-01  6.36834728209E-01  6.47538093899E-01  6.58421343889E-01
  6.69487501374E-01  6.80739640358E-01  6.92180886507E-01  7.03814418019E-01
  7.15643466505E-01  7.27671317889E-01  7.39901313316E-01  7.52336850087E-01
  7.64981382598E-01  7.77838423299E-01  7.90911543675E-01  8.04204375230E-01
  8.17720610505E-01  8.31464004095E-01  8.45438373698E-01  8.59647601174E-01
  8.74095633622E-01  8.88786484476E-01  9.03724234623E-01  9.18913033535E-01
  9.34357100419E-01  9.50060725393E-01  9.66028270678E-01  9.82264171803E-01
  9.98772938848E-01  1.01555915769E+00  1.03262749126E+00  1.04998268089E+00
  1.06762954757E+00  1.08557299333E+00  1.10381800256E+00  1.12236964344E+00
  1.14123306933E+00  1.16041352019E+00  1.17991632404E+00  1.19974689846E+00
  1.21991075206E+00  1.24041348604E+00  1.26126079575E+00  1.28245847224E+00
  1.30401240387E+00  1.32592857801E+00  1.34821308260E+00  1.37087210795E+00
  1.39391194836E+00  1.41733900394E+00  1.44115978235E+00  1.46538090064E+00
  1.49000908704E+00  1.51505118289E+00  1.54051414446E+00  1.56640504499E+00
  1.59273107654E+00  1.61949955207E+00  1.64671790745E+00  1.67439370350E+00
  1.70253462813E+00  1.73114849843E+00  1.76024326289E+00  1.78982700357E+00
  1.81990793837E+00  1.85049442330E+00  1.88159495481E+00  1.91321817212E+00
  1.94537285966E+00  1.97806794951E+00  2.01131252385E+00  2.04511581748E+00
  2.07948722043E+00  2.11443628054E+00  2.14997270610E+00  2.18610636856E+00
  2.22284730530E+00  2.26020572236E+00  2.29819199731E+00  2.33681668216E+00
  2.37609050622E+00  2.41602437914E+00  2.45662939392E+00  2.49791683000E+00
  2.53989815637E+00  2.58258503478E+00  2.62598932297E+00  2.67012307797E+00
  2.71499855943E+00  2.76062823307E+00  2.80702477407E+00  2.85420107067E+00
  2.90217022770E+00  2.95094557023E+00  3.00054064729E+00  3.05096923559E+00
  3.10224534341E+00  3.15438321443E+00  3.20739733174E+00  3.26130242183E+00
  3.31611345867E+00  3.37184566790E+00  3.42851453105E+00  3.48613578984E+00
  3.54472545054E+00  3.60429978844E+00  3.66487535234E+00  3.72646896918E+00
  3.78909774870E+00  3.85277908817E+00  3.91753067728E+00  3.98337050299E+00
  4.05031685456E+00  4.11838832863E+00  4.18760383439E+00  4.25798259880E+00
  4.32954417198E+00  4.40230843261E+00  4.47629559343E+00  4.55152620693E+00
  4.62802117097E+00  4.70580173465E+00  4.78488950418E+00  4.86530644890E+00
  4.94707490735E+00  5.03021759354E+00  5.11475760318E+00  5.20071842015E+00
  5.28812392301E+00  5.37699839163E+00  5.46736651393E+00  5.55925339275E+00
  5.65268455282E+00  5.74768594783E+00  5.84428396767E+00  5.94250544575E+00
  6.04237766644E+00  6.14392837267E+00  6.24718577361E+00  6.35217855256E+00
  6.45893587483E+00  6.56748739593E+00  6.67786326976E+00  6.79009415699E+00
  6.90421123360E+00  7.02024619949E+00  7.13823128736E+00  7.25819927159E+00
  7.38018347741E+00  7.50421779009E+00  7.63033666440E+00  7.75857513419E+00
  7.88896882207E+00  8.02155394934E+00  8.15636734608E+00  8.29344646129E+00
  8.43282937341E+00  8.57455480079E+00  8.71866211254E+00  8.86519133937E+00
  9.01418318481E+00  9.16567903642E+00  9.31972097737E+00  9.47635179807E+00
  9.63561500809E+00  9.79755484823E+00  9.96221630284E+00  1.01296451122E+01
  1.02998877855E+01  1.04729916135E+01  1.06490046815E+01  1.08279758833E+01
  1.10099549343E+01  1.11949923853E+01  1.13831396368E+01  1.15744489532E+01
  1.17689734772E+01  1.19667672446E+01  1.21678851994E+01  1.23723832091E+01
  1.25803180798E+01  1.27917475726E+01  1.30067304194E+01  1.32253263389E+01
  1.34475960537E+01  1.36736013067E+01  1.39034048787E+01  1.41370706054E+01
  1.43746633956E+01  1.46162492486E+01  1.48618952734E+01  1.51116697063E+01
  1.53656419309E+01  1.56238824967E+01  1.58864631387E+01  1.61534567977E+01
  1.64249376404E+01  1.67009810798E+01  1.69816637964E+01  1.72670637595E+01
  1.75572602487E+01  1.78523338760E+01  1.81523666081E+01  1.84574417895E+01
  1.87676441651E+01  1.90830599044E+01  1.94037766248E+01  1.97298834163E+01
  2.00614708663E+01  2.03986310846E+01  2.07414577289E+01  2.10900460310E+01
  2.14444928233E+01  2.18048965655E+01  2.21713573721E+01  2.25439770400E+01
  2.29228590772E+01  2.33081087311E+01  2.36998330180E+01  2.40981407526E+01
  2.45031425787E+01  2.49149509992E+01  2.53336804081E+01  2.57594471218E+01
  2.61923694115E+01  2.66325675363E+01  2.70801637762E+01  2.75352824664E+01
  2.79980500316E+01  2.84685950215E+01  2.89470481459E+01  2.94335423116E+01
  2.99282126589E+01  3.04311965996E+01  3.09426338546E+01  3.14626664930E+01
  3.19914389717E+01  3.25290981755E+01  3.30757934574E+01  3.36316766809E+01
  3.41969022615E+01  3.47716272099E+01  3.53560111757E+01  3.59502164916E+01
  3.65544082182E+01  3.71687541907E+01  3.77934250645E+01  3.84285943634E+01
  3.90744385274E+01  3.97311369618E+01  4.03988720870E+01  4.10778293894E+01
  4.17681974725E+01  4.24701681097E+01  4.31839362974E+01  4.39097003090E+01
  4.46476617504E+01  4.53980256156E+01  4.61610003438E+01  4.69367978774E+01
  4.77256337207E+01  4.85277269997E+01  4.93433005234E+01  5.01725808452E+01
  5.10157983261E+01  5.18731871985E+01  5.27449856316E+01  5.36314357972E+01
  5.45327839371E+01  5.54492804317E+01  5.63811798692E+01  5.73287411165E+01
  5.82922273911E+01  5.92719063345E+01  6.02680500858E+01  6.12809353581E+01
  6.23108435150E+01  6.33580606486E+01  6.44228776593E+01  6.55055903365E+01
  6.66064994407E+01  6.77259107871E+01  6.88641353303E+01  7.00214892513E+01
  7.11982940446E+01  7.23948766081E+01  7.36115693335E+01  7.48487101988E+01
  7.61066428623E+01  7.73857167576E+01  7.86862871915E+01  8.00087154417E+01
  8.13533688581E+01  8.27206209640E+01  8.41108515605E+01  8.55244468318E+01
  8.69617994522E+01  8.84233086956E+01  8.99093805462E+01  9.14204278113E+01
  9.29568702360E+01  9.45191346198E+01  9.61076549348E+01  9.77228724472E+01
  9.93652358387E+01  1.01035201332E+02  1.02733232817E+02  1.04459801980E+02
  1.06215388435E+02  1.08000479856E+02  1.09815572113E+02  1.11661169411E+02
  1.13537784426E+02  1.15445938453E+02  1.17386161547E+02  1.19358992672E+02
  1.21364979848E+02  1.23404680308E+02  1.25478660647E+02  1.27587496985E+02
  1.29731775124E+02  1.31912090709E+02  1.34129049398E+02  1.36383267027E+02
  1.38675369783E+02  1.41005994375E+02  1.43375788214E+02  1.45785409591E+02
  1.48235527861E+02  1.50726823628E+02  1.53259988934E+02  1.55835727454E+02
  1.58454754687E+02  1.61117798156E+02  1.63825597614E+02  1.66578905244E+02
  1.69378485872E+02  1.72225117176E+02  1.75119589907E+02  1.78062708103E+02
  1.81055289316E+02  1.84098164837E+02  1.87192179930E+02  1.90338194062E+02
  1.93537081148E+02  1.96789729786E+02  2.00097043513E+02
  </PP_R>
  <PP_RAB>
  5.06601091975E-07  5.15115197300E-07  5.23772393493E-07  5.32575085386E-07
  5.41525718226E-07  5.50626778359E-07  5.59880793916E-07  5.69290335515E-07
  5.78858016980E-07  5.88586496060E-07  5.98478475173E-07  6.08536702156E-07
  6.18763971025E-07  6.29163122753E-07  6.39737046061E-07  6.50488678217E-07
  6.61421005856E-07  6.72537065805E-07  6.83839945930E-07  6.95332785992E-07
  7.07018778522E-07  7.18901169703E-07  7.30983260276E-07  7.43268406455E-07
  7.55760020860E-07  7.68461573463E-07  7.81376592556E-07  7.94508665727E-07
  8.07861440858E-07  8.21438627139E-07  8.35243996099E-07  8.49281382650E-07
  8.63554686158E-07  8.78067871520E-07  8.92824970270E-07  9.07830081698E-07
  9.23087373986E-07  9.38601085368E-07  9.54375525310E-07  9.70415075701E-07
  9.86724192075E-07  1.00330740485E-06  1.02016932057E-06  1.03731462322E-06
  1.05474807550E-06  1.07247452013E-06  1.09049888124E-06  1.10882616573E-06
  1.12746146461E-06  1.14640995448E-06  1.16567689893E-06  1.18526765002E-06
  1.20518764974E-06  1.22544243156E-06  1.24603762194E-06  1.26697894188E-06
  1.28827220857E-06  1.30992333694E-06  1.33193834132E-06  1.35432333714E-06
  1.37708454259E-06  1.40022828039E-06  1.42376097948E-06  1.44768917689E-06
  1.47201951950E-06  1.49675876588E-06  1.52191378820E-06  1.54749157415E-06
  1.57349922881E-06  1.59994397672E-06  1.62683316379E-06  1.65417425942E-06
  1.68197485854E-06  1.71024268372E-06  1.73898558730E-06  1.76821155362E-06
  1.79792870118E-06  1.82814528494E-06  1.85886969860E-06  1.89011047689E-06
  1.92187629804E-06  1.95417598606E-06  1.98701851332E-06  2.02041300294E-06
  2.05436873138E-06  2.08889513101E-06  2.12400179273E-06  2.15969846860E-06
  2.19599507460E-06  2.23290169335E-06  2.27042857692E-06  2.30858614971E-06
  2.34738501126E-06  2.38683593931E-06  2.42694989268E-06  2.46773801441E-06
  2.50921163478E-06  2.55138227453E-06  2.59426164798E-06  2.63786166634E-06
  2.68219444102E-06  2.72727228695E-06  2.77310772606E-06  2.81971349070E-06
  2.86710252722E-06  2.91528799955E-06  2.96428329284E-06  3.01410201721E-06
  3.06475801153E-06  3.11626534723E-06  3.16863833223E-06  3.22189151491E-06
  3.27603968818E-06  3.33109789354E-06  3.38708142529E-06  3.44400583476E-06
  3.50188693468E-06  3.56074080348E-06  3.62058378984E-06  3.68143251720E-06
  3.74330388838E-06  3.80621509027E-06  3.87018359859E-06  3.93522718281E-06
  4.00136391099E-06  4.06861215487E-06  4.13699059496E-06  4.20651822570E-06
  4.27721436078E-06  4.34909863846E-06  4.42219102706E-06  4.49651183049E-06
  4.57208169390E-06  4.64892160940E-06  4.72705292191E-06  4.80649733507E-06
  4.88727691728E-06  4.96941410784E-06  5.05293172316E-06  5.13785296312E-06
  5.22420141750E-06  5.31200107252E-06  5.40127631756E-06  5.49205195186E-06
  5.58435319146E-06  5.67820567619E-06  5.77363547679E-06  5.87066910214E-06
  5.96933350666E-06  6.06965609776E-06  6.17166474347E-06  6.27538778018E-06
  6.38085402052E-06  6.48809276133E-06  6.59713379185E-06  6.70800740196E-06
  6.82074439059E-06  6.93537607430E-06  7.05193429596E-06  7.17045143360E-06
  7.29096040941E-06  7.41349469889E-06  7.53808834011E-06  7.66477594324E-06
  7.79359270008E-06  7.92457439389E-06  8.05775740932E-06  8.19317874252E-06
  8.33087601138E-06  8.47088746603E-06  8.61325199945E-06  8.75800915825E-06
  8.90519915369E-06  9.05486287282E-06  9.20704188987E-06  9.36177847775E-06
  9.51911561985E-06  9.67909702194E-06  9.84176712433E-06  1.00071711142E-05
  1.01753549382E-05  1.03463653151E-05  1.05202497489E-05  1.06970565419E-05
  1.08768348083E-05  1.10596344876E-05  1.12455063588E-05  1.14345020540E-05
  1.16266740733E-05  1.18220757991E-05  1.20207615108E-05  1.22227864003E-05
  1.24282065868E-05  1.26370791328E-05  1.28494620598E-05  1.30654143644E-05
  1.32849960349E-05  1.35082680674E-05  1.37352924835E-05  1.39661323470E-05
  1.42008517814E-05  1.44395159882E-05  1.46821912645E-05  1.49289450217E-05
  1.51798458041E-05  1.54349633078E-05  1.56943684007E-05  1.59581331412E-05
  1.62263307992E-05  1.64990358755E-05  1.67763241235E-05  1.70582725694E-05
  1.73449595340E-05  1.76364646545E-05  1.79328689063E-05  1.82342546259E-05
  1.85407055335E-05  1.88523067563E-05  1.91691448522E-05  1.94913078338E-05
  1.98188851929E-05  2.01519679254E-05  2.04906485562E-05  2.08350211657E-05
  2.11851814150E-05  2.15412265732E-05  2.19032555439E-05  2.22713688931E-05
  2.26456688769E-05  2.30262594698E-05  2.34132463940E-05  2.38067371484E-05
  2.42068410383E-05  2.46136692064E-05  2.50273346631E-05  2.54479523181E-05
  2.58756390124E-05  2.63105135506E-05  2.67526967340E-05  2.72023113940E-05
  2.76594824266E-05  2.81243368266E-05  2.85970037232E-05  2.90776144158E-05
  2.95663024105E-05  3.00632034571E-05  3.05684555869E-05  3.10821991509E-05
  3.16045768589E-05  3.21357338194E-05  3.26758175791E-05  3.32249781650E-05
  3.37833681251E-05  3.43511425714E-05  3.49284592226E-05  3.55154784482E-05
  3.61123633128E-05  3.67192796217E-05  3.73363959665E-05  3.79638837726E-05
  3.86019173460E-05  3.92506739225E-05  3.99103337163E-05  4.05810799705E-05
  4.12630990080E-05  4.19565802827E-05  4.26617164328E-05  4.33787033340E-05
  4.41077401539E-05  4.48490294076E-05  4.56027770133E-05  4.63691923503E-05
  4.71484883167E-05  4.79408813885E-05  4.87465916802E-05  4.95658430051E-05
  5.03988629386E-05  5.12458828802E-05  5.21071381188E-05  5.29828678975E-05
  5.38733154802E-05  5.47787282192E-05  5.56993576238E-05  5.66354594303E-05
  5.75872936731E-05  5.85551247566E-05  5.95392215291E-05  6.05398573570E-05
  6.15573102013E-05  6.25918626942E-05  6.36438022182E-05  6.47134209853E-05
  6.58010161188E-05  6.69068897354E-05  6.80313490294E-05  6.91747063578E-05
  7.03372793273E-05  7.15193908821E-05  7.27213693943E-05  7.39435487545E-05
  7.51862684648E-05  7.64498737331E-05  7.77347155691E-05  7.90411508814E-05
  8.03695425772E-05  8.17202596628E-05  8.30936773459E-05  8.44901771404E-05
  8.59101469718E-05  8.73539812853E-05  8.88220811554E-05  9.03148543969E-05
  9.18327156787E-05  9.33760866386E-05  9.49453960008E-05  9.65410796947E-05
  9.81635809759E-05  9.98133505497E-05  1.01490846696E-04  1.03196535397E-04
  1.04930890465E-04  1.06694393678E-04  1.08487534909E-04  1.10310812263E-04
  1.12164732219E-04  1.14049809767E-04  1.15966568550E-04  1.17915541015E-04
  1.19897268555E-04  1.21912301663E-04  1.23961200082E-04  1.26044532966E-04
  1.28162879031E-04  1.30316826719E-04  1.32506974364E-04  1.34733930353E-04
  1.36998313301E-04  1.39300752217E-04  1.41641886681E-04  1.44022367025E-04
  1.46442854509E-04  1.48904021504E-04  1.51406551686E-04  1.53951140216E-04
  1.56538493942E-04  1.59169331589E-04  1.61844383963E-04  1.64564394151E-04
  1.67330117729E-04  1.70142322971E-04  1.73001791064E-04  1.75909316322E-04
  1.78865706410E-04  1.81871782567E-04  1.84928379832E-04  1.88036347282E-04
  1.91196548259E-04  1.94409860617E-04  1.97677176965E-04  2.00999404911E-04
  2.04377467317E-04  2.07812302557E-04  2.11304864772E-04  2.14856124141E-04
  2.18467067149E-04  2.22138696858E-04  2.25872033189E-04  2.29668113204E-04
  2.33527991394E-04  2.37452739972E-04  2.41443449171E-04  2.45501227547E-04
  2.49627202287E-04  2.53822519522E-04  2.58088344645E-04  2.62425862634E-04
  2.66836278383E-04  2.71320817037E-04  2.75880724329E-04  2.80517266929E-04
  2.85231732796E-04  2.90025431534E-04  2.94899694757E-04  2.99855876458E-04
  3.04895353386E-04  3.10019525428E-04  3.15229815998E-04  3.20527672434E-04
  3.25914566394E-04  3.31391994275E-04  3.36961477618E-04  3.42624563538E-04
  3.48382825152E-04  3.54237862012E-04  3.60191300556E-04  3.66244794556E-04
  3.72400025575E-04  3.78658703441E-04  3.85022566715E-04  3.91493383177E-04
  3.98072950319E-04  4.04763095840E-04  4.11565678157E-04  4.18482586919E-04
  4.25515743536E-04  4.32667101706E-04  4.39938647965E-04  4.47332402232E-04
  4.54850418377E-04  4.62494784784E-04  4.70267624939E-04  4.78171098014E-04
  4.86207399468E-04  4.94378761660E-04  5.02687454464E-04  5.11135785905E-04
  5.19726102795E-04  5.28460791389E-04  5.37342278046E-04  5.46373029901E-04
  5.55555555556E-04  5.64892405770E-04  5.74386174174E-04  5.84039497987E-04
  5.93855058748E-04  6.03835583067E-04  6.13983843375E-04  6.24302658699E-04
  6.34794895442E-04  6.45463468182E-04  6.56311340481E-04  6.67341525705E-04
  6.78557087867E-04  6.89961142471E-04  7.01556857385E-04  7.13347453715E-04
  7.25336206703E-04  7.37526446634E-04  7.49921559764E-04  7.62524989262E-04
  7.75340236159E-04  7.88370860330E-04  8.01620481475E-04  8.15092780131E-04
  8.28791498690E-04  8.42720442438E-04  8.56883480617E-04  8.71284547495E-04
  8.85927643460E-04  9.00816836134E-04  9.15956261500E-04  9.31350125050E-04
  9.47002702957E-04  9.62918343260E-04  9.79101467071E-04  9.95556569809E-04
  1.01228822244E-03  1.02930107275E-03  1.04659984665E-03  1.06418934945E-03
  1.08207446725E-03  1.10026016825E-03  1.11875150415E-03  1.13755361155E-03
  1.15667171338E-03  1.17611112034E-03  1.19587723240E-03  1.21597554027E-03
  1.23641162694E-03  1.25719116924E-03  1.27831993938E-03  1.29980380663E-03
  1.32164873884E-03  1.34386080420E-03  1.36644617286E-03  1.38941111870E-03
  1.41276202100E-03  1.43650536629E-03  1.46064775007E-03  1.48519587874E-03
  1.51015657137E-03  1.53553676164E-03  1.56134349978E-03  1.58758395448E-03
  1.61426541493E-03  1.64139529283E-03  1.66898112441E-03  1.69703057260E-03
  1.72555142908E-03  1.75455161649E-03  1.78403919064E-03  1.81402234270E-03
  1.84450940152E-03  1.87550883592E-03  1.90702925706E-03  1.93907942081E-03
  1.97166823020E-03  2.00480473789E-03  2.03849814868E-03  2.07275782206E-03
  2.10759327482E-03  2.14301418372E-03  2.17903038811E-03  2.21565189274E-03
  2.25288887047E-03  2.29075166515E-03  2.32925079447E-03  2.36839695287E-03
  2.40820101455E-03  2.44867403643E-03  2.48982726130E-03  2.53167212086E-03
  2.57422023895E-03  2.61748343477E-03  2.66147372616E-03  2.70620333291E-03
  2.75168468022E-03  2.79793040207E-03  2.84495334481E-03  2.89276657066E-03
  2.94138336137E-03  2.99081722194E-03  3.04108188429E-03  3.09219131117E-03
  3.14415969997E-03  3.19700148667E-03  3.25073134990E-03  3.30536421496E-03
  3.36091525801E-03  3.41739991023E-03  3.47483386219E-03  3.53323306811E-03
  3.59261375039E-03  3.65299240403E-03  3.71438580127E-03  3.77681099622E-03
  3.84028532963E-03  3.90482643366E-03  3.97045223681E-03  4.03718096888E-03