 *********************************************************
 *                                                       *
 *                  WELCOME TO ABACUS                    *
 *                                                       *
 *            'Atomic-orbital Based Ab-initio            *
 *                  Computation at UStc'                 *
 *                                                       *
 *          Website: http://abacus.ustc.edu.cn/          *
 *                                                       *
 *********************************************************
 Sat Jan 30 16:21:16 2021
 MAKE THE DIR         : OUT.abacus/
 DONE(0.0508616  SEC) : SETUP UNITCELL
 DONE(0.0510054  SEC) : INIT K-POINTS
 ---------------------------------------------------------
 This calculation is self-consistent
 ---------------------------------------------------------
 SPIN    KPOINTS         PROCESSORS  
 1       1               1           
 ---------------------------------------------------------
 Use plane wave basis
 ---------------------------------------------------------
 ELEMENT NATOM       XC          
 H       2           PBE
 O       1           PBE
 ---------------------------------------------------------
 Initial plane wave basis and FFT box
 ---------------------------------------------------------
 DONE(0.128295   SEC) : INIT PLANEWAVE
 UNIFORM GRID DIM     : 48 * 48 * 48
 UNIFORM GRID DIM(BIG): 48 * 48 * 48
 MEMORY FOR PSI (MB)  : 0.552155
 DONE(0.142381   SEC) : LOCAL POTENTIAL
 DONE(0.147029   SEC) : NON-LOCAL POTENTIAL
 START POTENTIAL      : atomic
 DONE(0.220855   SEC) : INIT POTENTIAL
 DONE(0.25472    SEC) : INIT BASIS
 -------------------------------------------
 SELF-CONSISTENT : 
 -------------------------------------------
 ITER   ETOT(eV)       EDIFF(eV)      SCF_THR      CG_ITER    TIME(S)    
 CG1    -2.835018e+01  0.000000e+00   5.192e+00  1.000e+01  3.332e-01  
 CG2    -2.718276e+01  1.167415e+00   6.586e-01  3.000e+00  1.672e-01  
 CG3    -2.922537e+01  -2.042603e+00  3.547e-02  2.667e+00  1.576e-01  
 CG4    -2.927314e+01  -4.777474e-02  5.820e-02  4.000e+00  1.858e-01  
 CG5    -2.937300e+01  -9.986165e-02  1.613e-03  2.667e+00  1.610e-01  
 CG6    -2.937923e+01  -6.231003e-03  1.783e-05  5.500e+00  2.225e-01  
 CG7    -2.937924e+01  -3.778364e-06  8.821e-06  5.000e+00  2.062e-01  
 CG8    -2.937925e+01  -9.245653e-06  6.311e-07  2.667e+00  1.563e-01  
 CG9    -2.937925e+01  -1.147022e-06  5.296e-08  4.667e+00  2.033e-01  
 CG10   -2.937925e+01  -1.211570e-07  9.727e-09  5.167e+00  2.038e-01  
 DONE(2.398e+00  SEC) : jlq3d_overlap
 DONE(2.399e+00  SEC) : GENERATE DESCRIPTOR FOR DEEPKS

  |CLASS_NAME---------|NAME---------------|TIME(Sec)-----|CALLS----|AVG------|PER%-------
 A DC_Driv             solve_eachf         2.3            1         2.3       95        %
 B Run_Frag            frag_pw_line        2.3            1         2.3       95        %
 X FFT                 FFT3D               1.2            879       0.0014    50        %
 E potential           v_of_rho            0.56           11        0.051     23        %
 G Hamilt_PW           cinitcgg            0.26           11        0.023     11        %
 H Hamilt_PW           h_psi               1.1            338       0.0034    47        %
 C Ions                opt_ions_pw         2              1         2         83        %
 D electrons           self_consistent     2              1         2         83        %
 E electrons           c_bands             1.2            10        0.12      51        %
 F Hamilt              diago               1.2            10        0.12      51        %
 G Diago_CG            diag                0.98           10        0.098     41        %
 E Charge              mix_rho             0.13           10        0.013     5.5       %
 ----------------------------------------------------------------------------------------

 START  Time  : Sat Jan 30 16:21:16 2021
 FINISH Time  : Sat Jan 30 16:21:18 2021
 TOTAL  Time  : 2
 SEE INFORMATION IN : OUT.abacus/
