<PP_INFO>
Generated using ld1 code (maybe, or maybe not)                                  
Author: unknown    Generation date: as well                                     
Info: automatically converted from PWSCF format                                 
    0        The Pseudo was generated with a Non-Relativistic Calculation
nl pn  l   occ               Rcut            Rcut US             E pseu
*S  0  0  2.00      0.00000000000      0.00000000000      0.00000000000
*P  0  1  2.00      0.00000000000      0.00000000000      0.00000000000
</PP_INFO>


<PP_HEADER>
   0                   Version Number
  Si                   Element
   NC                  Norm - Conserving pseudopotential
    F                  Nonlinear Core Correction
SLA  PZ   NOGX NOGC    PZ   Exchange-Correlation functional
    4.00000000000      Z valence
    0.00000000000      Total energy
  0.0000000  0.0000000 Suggested cutoff for wfc and rho
    1                  Max angular momentum component
 1144                  Number of points in mesh
    2    1             Number of Wavefunctions, Number of Projectors
 Wavefunctions         nl  l   occ
                       *S  0  2.00
                       *P  1  2.00
</PP_HEADER>


<PP_MESH>
  <PP_R>
  4.14913191542E-05  4.20342275619E-05  4.25842398541E-05  4.31414489843E-05
  4.37059491219E-05  4.42778356690E-05  4.48572052757E-05  4.54441558569E-05
  4.60387866086E-05  4.66411980247E-05  4.72514919144E-05  4.78697714186E-05
  4.84961410282E-05  4.91307066010E-05  4.97735753802E-05  5.04248560121E-05
  5.10846585646E-05  5.17530945461E-05  5.24302769236E-05  5.31163201428E-05
  5.38113401465E-05  5.45154543948E-05  5.52287818846E-05  5.59514431700E-05
  5.66835603825E-05  5.74252572516E-05  5.81766591258E-05  5.89378929939E-05
  5.97090875062E-05  6.04903729964E-05  6.12818815036E-05  6.20837467947E-05
  6.28961043867E-05  6.37190915700E-05  6.45528474315E-05  6.53975128778E-05
  6.62532306595E-05  6.71201453948E-05  6.79984035945E-05  6.88881536862E-05
  6.97895460399E-05  7.07027329929E-05  7.16278688761E-05  7.25651100396E-05
  7.35146148794E-05  7.44765438641E-05  7.54510595620E-05  7.64383266685E-05
  7.74385120342E-05  7.84517846927E-05  7.94783158895E-05  8.05182791109E-05
  8.15718501131E-05  8.26392069522E-05  8.37205300138E-05  8.48160020444E-05
  8.59258081811E-05  8.70501359839E-05  8.81891754669E-05  8.93431191305E-05
  9.05121619938E-05  9.16965016280E-05  9.28963381891E-05  9.41118744526E-05
  9.53433158467E-05  9.65908704882E-05  9.78547492168E-05  9.91351656308E-05
  1.00432336124E-04  1.01746479921E-04  1.03077819115E-04  1.04426578706E-04
  1.05792986637E-04  1.07177273834E-04  1.08579674247E-04  1.10000424882E-04
  1.11439765851E-04  1.12897940406E-04  1.14375194981E-04  1.15871779237E-04
  1.17387946099E-04  1.18923951803E-04  1.20480055939E-04  1.22056521490E-04
  1.23653614884E-04  1.25271606033E-04  1.26910768382E-04  1.28571378953E-04
  1.30253718393E-04  1.31958071021E-04  1.33684724878E-04  1.35433971771E-04
  1.37206107327E-04  1.39001431043E-04  1.40820246331E-04  1.42662860576E-04
  1.44529585183E-04  1.46420735635E-04  1.48336631540E-04  1.50277596688E-04
  1.52243959108E-04  1.54236051119E-04  1.56254209390E-04  1.58298774994E-04
  1.60370093468E-04  1.62468514870E-04  1.64594393837E-04  1.66748089648E-04
  1.68929966284E-04  1.71140392486E-04  1.73379741822E-04  1.75648392746E-04
  1.77946728667E-04  1.80275138009E-04  1.82634014278E-04  1.85023756130E-04
  1.87444767438E-04  1.89897457357E-04  1.92382240398E-04  1.94899536496E-04
  1.97449771080E-04  2.00033375145E-04  2.02650785326E-04  2.05302443972E-04
  2.07988799220E-04  2.10710305070E-04  2.13467421464E-04  2.16260614359E-04
  2.19090355813E-04  2.21957124059E-04  2.24861403587E-04  2.27803685227E-04
  2.30784466232E-04  2.33804250362E-04  2.36863547966E-04  2.39962876073E-04
  2.43102758478E-04  2.46283725827E-04  2.49506315713E-04  2.52771072759E-04
  2.56078548719E-04  2.59429302562E-04  2.62823900576E-04  2.66262916454E-04
  2.69746931398E-04  2.73276534216E-04  2.76852321419E-04  2.80474897323E-04
  2.84144874152E-04  2.87862872142E-04  2.91629519641E-04  2.95445453224E-04
  2.99311317792E-04  3.03227766684E-04  3.07195461791E-04  3.11215073662E-04
  3.15287281621E-04  3.19412773882E-04  3.23592247661E-04  3.27826409300E-04
  3.32115974383E-04  3.36461667856E-04  3.40864224151E-04  3.45324387312E-04
  3.49842911116E-04  3.54420559205E-04  3.59058105212E-04  3.63756332893E-04
  3.68516036260E-04  3.73338019715E-04  3.78223098183E-04  3.83172097255E-04
  3.88185853324E-04  3.93265213725E-04  3.98411036884E-04  4.03624192456E-04
  4.08905561478E-04  4.14256036513E-04  4.19676521803E-04  4.25167933425E-04
  4.30731199440E-04  4.36367260052E-04  4.42077067770E-04  4.47861587565E-04
  4.53721797033E-04  4.59658686566E-04  4.65673259510E-04  4.71766532344E-04
  4.77939534845E-04  4.84193310264E-04  4.90528915505E-04  4.96947421301E-04
  5.03449912393E-04  5.10037487719E-04  5.16711260595E-04  5.23472358903E-04
  5.30321925286E-04  5.37261117336E-04  5.44291107794E-04  5.51413084745E-04
  5.58628251819E-04  5.65937828397E-04  5.73343049816E-04  5.80845167574E-04
  5.88445449549E-04  5.96145180204E-04  6.03945660815E-04  6.11848209679E-04
  6.19854162347E-04  6.27964871844E-04  6.36181708898E-04  6.44506062176E-04
  6.52939338512E-04  6.61482963151E-04  6.70138379984E-04  6.78907051799E-04
  6.87790460521E-04  6.96790107469E-04  7.05907513603E-04  7.15144219786E-04
  7.24501787045E-04  7.33981796831E-04  7.43585851287E-04  7.53315573522E-04
  7.63172607881E-04  7.73158620228E-04  7.83275298222E-04  7.93524351605E-04
  8.03907512493E-04  8.14426535663E-04  8.25083198857E-04  8.35879303075E-04
  8.46816672884E-04  8.57897156727E-04  8.69122627231E-04  8.80494981528E-04
  8.92016141572E-04  9.03688054467E-04  9.15512692795E-04  9.27492054946E-04
  9.39628165462E-04  9.51923075375E-04  9.64378862553E-04  9.76997632054E-04
  9.89781516480E-04  1.00273267634E-03  1.01585330041E-03  1.02914560610E-03
  1.04261183985E-03  1.05625427748E-03  1.07007522460E-03  1.08407701698E-03
  1.09826202095E-03  1.11263263382E-03  1.12719128426E-03  1.14194043270E-03
  1.15688257180E-03  1.17202022680E-03  1.18735595601E-03  1.20289235120E-03
  1.21863203807E-03  1.23457767665E-03  1.25073196179E-03  1.26709762361E-03
  1.28367742795E-03  1.30047417683E-03  1.31749070894E-03  1.33472990011E-03
  1.35219466381E-03  1.36988795163E-03  1.38781275378E-03  1.40597209958E-03
  1.42436905802E-03  1.44300673821E-03  1.46188828998E-03  1.48101690435E-03
  1.50039581410E-03  1.52002829432E-03  1.53991766293E-03  1.56006728130E-03
  1.58048055474E-03  1.60116093317E-03  1.62211191160E-03  1.64333703081E-03
  1.66483987788E-03  1.68662408686E-03  1.70869333932E-03  1.73105136502E-03
  1.75370194253E-03  1.77664889984E-03  1.79989611503E-03  1.82344751696E-03
  1.84730708586E-03  1.87147885405E-03  1.89596690662E-03  1.92077538211E-03
  1.94590847322E-03  1.97137042748E-03  1.99716554804E-03  2.02329819433E-03
  2.04977278284E-03  2.07659378782E-03  2.10376574209E-03  2.13129323778E-03
  2.15918092710E-03  2.18743352314E-03  2.21605580065E-03  2.24505259686E-03
  2.27442881231E-03  2.30418941164E-03  2.33433942446E-03  2.36488394620E-03
  2.39582813896E-03  2.42717723238E-03  2.45893652452E-03  2.49111138279E-03
  2.52370724481E-03  2.55672961937E-03  2.59018408731E-03  2.62407630253E-03
  2.65841199289E-03  2.69319696120E-03  2.72843708622E-03  2.76413832359E-03
  2.80030670692E-03  2.83694834874E-03  2.87406944159E-03  2.91167625902E-03
  2.94977515666E-03  2.98837257333E-03  3.02747503207E-03  3.06708914130E-03
  3.10722159590E-03  3.14787917834E-03  3.18906875985E-03  3.23079730158E-03
  3.27307185573E-03  3.31589956682E-03  3.35928767283E-03  3.40324350646E-03
  3.44777449633E-03  3.49288816830E-03  3.53859214669E-03  3.58489415557E-03
  3.63180202009E-03  3.67932366780E-03  3.72746712997E-03  3.77624054295E-03
  3.82565214958E-03  3.87571030052E-03  3.92642345573E-03  3.97780018584E-03
  4.02984917366E-03  4.08257921558E-03  4.13599922310E-03  4.19011822433E-03
  4.24494536552E-03  4.30048991258E-03  4.35676125266E-03  4.41376889577E-03
  4.47152247633E-03  4.53003175483E-03  4.58930661948E-03  4.64935708787E-03
  4.71019330867E-03  4.77182556335E-03  4.83426426792E-03  4.89751997464E-03
  4.96160337390E-03  5.02652529594E-03  5.09229671272E-03  5.15892873976E-03
  5.22643263804E-03  5.29481981588E-03  5.36410183086E-03  5.43429039182E-03
  5.50539736079E-03  5.57743475502E-03  5.65041474900E-03  5.72434967652E-03
  5.79925203276E-03  5.87513447639E-03  5.95200983174E-03  6.02989109091E-03
  6.10879141603E-03  6.18872414144E-03  6.26970277595E-03  6.35174100516E-03
  6.43485269372E-03  6.51905188769E-03  6.60435281696E-03  6.69076989756E-03
  6.77831773421E-03  6.86701112268E-03  6.95686505238E-03  7.04789470883E-03
  7.14011547626E-03  7.23354294020E-03  7.32819289012E-03  7.42408132207E-03
  7.52122444144E-03  7.61963866564E-03  7.71934062691E-03  7.82034717512E-03
  7.92267538061E-03  8.02634253710E-03  8.13136616458E-03  8.23776401230E-03
  8.34555406174E-03  8.45475452969E-03  8.56538387127E-03  8.67746078311E-03
  8.79100420648E-03  8.90603333048E-03  9.02256759531E-03  9.14062669554E-03
  9.26023058343E-03  9.38139947234E-03  9.50415384008E-03  9.62851443245E-03
  9.75450226667E-03  9.88213863499E-03  1.00114451083E-02  1.01424435396E-02
  1.02751560680E-02  1.04096051223E-02  1.05458134245E-02  1.06838039944E-02
  1.08236001526E-02  1.09652255249E-02  1.11087040465E-02  1.12540599655E-02
  1.14013178474E-02  1.15505025791E-02  1.17016393733E-02  1.18547537724E-02
  1.20098716531E-02  1.21670192307E-02  1.23262230635E-02  1.24875100573E-02
  1.26509074701E-02  1.28164429163E-02  1.29841443719E-02  1.31540401788E-02
  1.33261590498E-02  1.35005300734E-02  1.36771827187E-02  1.38561468404E-02
  1.40374526839E-02  1.42211308903E-02  1.44072125018E-02  1.45957289664E-02
  1.47867121439E-02  1.49801943110E-02  1.51762081666E-02  1.53747868375E-02
  1.55759638839E-02  1.57797733053E-02  1.59862495460E-02  1.61954275009E-02
  1.64073425216E-02  1.66220304222E-02  1.68395274855E-02  1.70598704691E-02
  1.72830966114E-02  1.75092436381E-02  1.77383497687E-02  1.79704537226E-02
  1.82055947259E-02  1.84438125181E-02  1.86851473585E-02  1.89296400333E-02
  1.91773318623E-02  1.94282647060E-02  1.96824809727E-02  1.99400236256E-02
  2.02009361899E-02  2.04652627605E-02  2.07330480092E-02  2.10043371923E-02
  2.12791761585E-02  2.15576113560E-02  2.18396898412E-02  2.21254592860E-02
  2.24149679860E-02  2.27082648690E-02  2.30053995028E-02  2.33064221038E-02
  2.36113835457E-02  2.39203353676E-02  2.42333297830E-02  2.45504196889E-02
  2.48716586742E-02  2.51971010290E-02  2.55268017538E-02  2.58608165689E-02
  2.61992019235E-02  2.65420150056E-02  2.68893137514E-02  2.72411568552E-02
  2.75976037794E-02  2.79587147643E-02  2.83245508385E-02  2.86951738293E-02
  2.90706463727E-02  2.94510319246E-02  2.98363947709E-02  3.02268000390E-02
  3.06223137082E-02  3.10230026213E-02  3.14289344957E-02  3.18401779349E-02
  3.22568024398E-02  3.26788784212E-02  3.31064772108E-02  3.35396710739E-02
  3.39785332212E-02  3.44231378215E-02  3.48735600140E-02  3.53298759211E-02
  3.57921626614E-02  3.62604983623E-02  3.67349621738E-02  3.72156342813E-02
  3.77025959196E-02  3.81959293863E-02  3.86957180560E-02  3.92020463942E-02
  3.97149999715E-02  4.02346654783E-02  4.07611307393E-02  4.12944847285E-02
  4.18348175839E-02  4.23822206230E-02  4.29367863582E-02  4.34986085126E-02
  4.40677820353E-02  4.46444031181E-02  4.52285692113E-02  4.58203790403E-02
  4.64199326224E-02  4.70273312836E-02  4.76426776757E-02  4.82660757938E-02
  4.88976309935E-02  4.95374500093E-02  5.01856409720E-02  5.08423134275E-02
  5.15075783549E-02  5.21815481857E-02  5.28643368224E-02  5.35560596578E-02
  5.42568335947E-02  5.49667770656E-02  5.56860100527E-02  5.64146541081E-02
  5.71528323742E-02  5.79006696051E-02  5.86582921869E-02  5.94258281597E-02
  6.02034072390E-02  6.09911608373E-02  6.17892220870E-02  6.25977258622E-02
  6.34168088022E-02  6.42466093337E-02  6.50872676952E-02  6.59389259598E-02
  6.68017280598E-02  6.76758198109E-02  6.85613489366E-02  6.94584650934E-02
  7.03673198962E-02  7.12880669435E-02  7.22208618438E-02  7.31658622416E-02
  7.41232278443E-02  7.50931204489E-02  7.60757039696E-02  7.70711444654E-02
  7.80796101680E-02  7.91012715105E-02  8.01363011563E-02  8.11848740276E-02
  8.22471673359E-02  8.33233606112E-02  8.44136357327E-02  8.55181769597E-02
  8.66371709620E-02  8.77708068525E-02  8.89192762182E-02  9.00827731533E-02
  9.12614942914E-02  9.24556388393E-02  9.36654086101E-02  9.48910080580E-02
  9.61326443121E-02  9.73905272118E-02  9.86648693425E-02  9.99558860709E-02
  1.01263795582E-01  1.02588818916E-01  1.03931180004E-01  1.05291105709E-01
  1.06668825861E-01  1.08064573299E-01  1.09478583907E-01  1.10911096656E-01
  1.12362353644E-01  1.13832600138E-01  1.15322084612E-01  1.16831058793E-01
  1.18359777701E-01  1.19908499693E-01  1.21477486506E-01  1.23067003304E-01
  1.24677318719E-01  1.26308704897E-01  1.27961437547E-01  1.29635795985E-01
  1.31332063180E-01  1.33050525807E-01  1.34791474289E-01  1.36555202852E-01
  1.38342009568E-01  1.40152196414E-01  1.41986069314E-01  1.43843938198E-01
  1.45726117050E-01  1.47632923962E-01  1.49564681190E-01  1.51521715205E-01
  1.53504356751E-01  1.55512940898E-01  1.57547807103E-01  1.59609299261E-01
  1.61697765772E-01  1.63813559589E-01  1.65957038288E-01  1.68128564121E-01
  1.70328504082E-01  1.72557229966E-01  1.74815118432E-01  1.77102551069E-01
  1.79419914459E-01  1.81767600241E-01  1.84146005181E-01  1.86555531233E-01
  1.88996585615E-01  1.91469580869E-01  1.93974934938E-01  1.96513071233E-01
  1.99084418705E-01  2.01689411917E-01  2.04328491120E-01  2.07002102324E-01
  2.09710697376E-01  2.12454734035E-01  2.15234676050E-01  2.18050993237E-01
  2.20904161561E-01  2.23794663214E-01  2.26722986698E-01  2.29689626907E-01
  2.32695085209E-01  2.35739869534E-01  2.38824494458E-01  2.41949481291E-01
  2.45115358161E-01  2.48322660110E-01  2.51571929180E-01  2.54863714505E-01
  2.58198572404E-01  2.61577066477E-01  2.64999767696E-01  2.68467254507E-01
  2.71980112922E-01  2.75538936624E-01  2.79144327063E-01  2.82796893556E-01
  2.86497253398E-01  2.90246031958E-01  2.94043862788E-01  2.97891387731E-01
  3.01789257027E-01  3.05738129425E-01  3.09738672296E-01  3.13791561739E-01
  3.17897482703E-01  3.22057129098E-01  3.26271203915E-01  3.30540419341E-01
  3.34865496885E-01  3.39247167495E-01  3.43686171684E-01  3.48183259654E-01
  3.52739191424E-01  3.57354736956E-01  3.62030676290E-01  3.66767799669E-01
  3.71566907680E-01  3.76428811382E-01  3.81354332449E-01  3.86344303306E-01
  3.91399567270E-01  3.96520978693E-01  4.01709403104E-01  4.06965717361E-01
  4.12290809793E-01  4.17685580353E-01  4.23150940770E-01  4.28687814703E-01
  4.34297137897E-01  4.39979858341E-01  4.45736936428E-01  4.51569345119E-01
  4.57478070104E-01  4.63464109971E-01  4.69528476376E-01  4.75672194211E-01
  4.81896301779E-01  4.88201850969E-01  4.94589907434E-01  5.01061550770E-01
  5.07617874701E-01  5.14259987261E-01  5.20989010983E-01  5.27806083087E-01
  5.34712355676E-01  5.41708995926E-01  5.48797186285E-01  5.55978124675E-01
  5.63253024691E-01  5.70623115809E-01  5.78089643592E-01  5.85653869901E-01
  5.93317073107E-01  6.01080548311E-01  6.08945607558E-01  6.16913580062E-01
  6.24985812430E-01  6.33163668887E-01  6.41448531512E-01  6.49841800465E-01
  6.58344894229E-01  6.66959249847E-01  6.75686323165E-01  6.84527589081E-01
  6.93484541788E-01  7.02558695034E-01  7.11751582371E-01  7.21064757419E-01
  7.30499794128E-01  7.40058287040E-01  7.49741851565E-01  7.59552124246E-01
  7.69490763045E-01  7.79559447614E-01  7.89759879585E-01  8.00093782856E-01
  8.10562903880E-01  8.21169011964E-01  8.31913899565E-01  8.42799382596E-01
  8.53827300728E-01  8.64999517706E-01  8.76317921662E-01  8.87784425432E-01
  8.99400966883E-01  9.11169509238E-01  9.23092041408E-01  9.35170578331E-01
  9.47407161307E-01  9.59803858349E-01  9.72362764527E-01  9.85086002326E-01
  9.97975722005E-01  1.01103410196E+00  1.02426334908E+00  1.03766569914E+00
  1.05124341718E+00  1.06499879785E+00  1.07893416586E+00  1.09305187631E+00
  1.10735431513E+00  1.12184389946E+00  1.13652307809E+00  1.15139433182E+00
  1.16646017393E+00  1.18172315058E+00  1.19718584126E+00  1.21285085920E+00
  1.22872085182E+00  1.24479850119E+00  1.26108652447E+00  1.27758767437E+00
  1.29430473963E+00  1.31124054547E+00  1.32839795409E+00  1.34577986512E+00
  1.36338921615E+00  1.38122898320E+00  1.39930218124E+00  1.41761186468E+00
  1.43616112789E+00  1.45495310576E+00  1.47399097416E+00  1.49327795055E+00
  1.51281729446E+00  1.53261230810E+00  1.55266633687E+00  1.57298276994E+00
  1.59356504084E+00  1.61441662803E+00  1.63554105547E+00  1.65694189324E+00
  1.67862275814E+00  1.70058731428E+00  1.72283927372E+00  1.74538239710E+00
  1.76822049426E+00  1.79135742489E+00  1.81479709918E+00  1.83854347851E+00
  1.86260057606E+00  1.88697245755E+00  1.91166324186E+00  1.93667710182E+00
  1.96201826482E+00  1.98769101357E+00  2.01369968683E+00  2.04004868014E+00
  2.06674244653E+00  2.09378549731E+00  2.12118240282E+00  2.14893779321E+00
  2.17705635919E+00  2.20554285289E+00  2.23440208857E+00  2.26363894353E+00
  2.29325835886E+00  2.32326534031E+00  2.35366495913E+00  2.38446235293E+00
  2.41566272654E+00  2.44727135290E+00  2.47929357395E+00  2.51173480151E+00
  2.54460051823E+00  2.57789627849E+00  2.61162770937E+00  2.64580051154E+00
  2.68042046029E+00  2.71549340648E+00  2.75102527752E+00  2.78702207838E+00
  2.82348989261E+00  2.86043488334E+00  2.89786329438E+00  2.93578145122E+00
  2.97419576210E+00  3.01311271915E+00  3.05253889942E+00  3.09248096603E+00
  3.13294566928E+00  3.17393984781E+00  3.21547042973E+00  3.25754443380E+00
  3.30016897064E+00  3.34335124388E+00  3.38709855145E+00  3.43141828673E+00
  3.47631793986E+00  3.52180509901E+00  3.56788745159E+00  3.61457278565E+00
  3.66186899112E+00  3.70978406115E+00  3.75832609353E+00  3.80750329196E+00
  3.85732396750E+00  3.90779653998E+00  3.95892953938E+00  4.01073160729E+00
  4.06321149838E+00  4.11637808190E+00  4.17024034310E+00  4.22480738485E+00
  4.28008842910E+00  4.33609281848E+00  4.39283001787E+00  4.45030961599E+00
  4.50854132703E+00  4.56753499228E+00  4.62730058181E+00  4.68784819616E+00
  4.74918806801E+00  4.81133056394E+00  4.87428618620E+00  4.93806557442E+00
  5.00267950747E+00  5.06813890527E+00  5.13445483061E+00  5.20163849103E+00
  5.26970124074E+00  5.33865458250E+00  5.40851016959E+00  5.47927980778E+00
  5.55097545729E+00  5.62360923486E+00  5.69719341579E+00  5.77174043596E+00
  5.84726289399E+00  5.92377355338E+00  6.00128534460E+00  6.07981136732E+00
  6.15936489263E+00  6.23995936527E+00  6.32160840590E+00  6.40432581339E+00
  6.48812556719E+00  6.57302182965E+00  6.65902894844E+00  6.74616145898E+00
  6.83443408686E+00  6.92386175036E+00  7.01445956298E+00  7.10624283597E+00
  7.19922708090E+00  7.29342801235E+00  7.38886155049E+00  7.48554382382E+00
  7.58349117187E+00  7.68272014797E+00  7.78324752207E+00  7.88509028353E+00
  7.98826564401E+00  8.09279104040E+00  8.19868413773E+00  8.30596283220E+00
  8.41464525415E+00  8.52474977118E+00  8.63629499121E+00  8.74929976565E+00
  8.86378319258E+00  8.97976461996E+00  9.09726364893E+00  9.21630013712E+00
  9.33689420196E+00  9.45906622414E+00  9.58283685104E+00  9.70822700016E+00
  9.83525786276E+00  9.96395090734E+00  1.00943278833E+01  1.02264108248E+01
  1.03602220540E+01  1.04957841854E+01  1.06331201293E+01  1.07722530958E+01
  1.09132065987E+01  1.10560044595E+01  1.12006708114E+01  1.13472301033E+01
  1.14957071041E+01  1.16461269068E+01  1.17985149326E+01  1.19528969356E+01
  1.21092990065E+01  1.22677475779E+01  1.24282694277E+01  1.25908916847E+01
  1.27556418323E+01  1.29225477138E+01  1.30916375366E+01  1.32629398773E+01
  1.34364836864E+01  1.36122982932E+01  1.37904134108E+01  1.39708591411E+01
  1.41536659799E+01  1.43388648219E+01  1.45264869662E+01  1.47165641213E+01
  1.49091284109E+01  1.51042123786E+01  1.53018489941E+01  1.55020716586E+01
  1.57049142100E+01  1.59104109293E+01  1.61185965460E+01  1.63295062438E+01
  1.65431756671E+01  1.67596409264E+01  1.69789386049E+01  1.72011057645E+01
  1.74261799518E+01  1.76541992051E+01  1.78852020600E+01  1.81192275567E+01
  1.83563152459E+01  1.85965051961E+01  1.88398380000E+01  1.90863547813E+01
  1.93360972020E+01  1.95891074691E+01  1.98454283421E+01  2.01051031396E+01
  2.03681757475E+01  2.06346906255E+01  2.09046928153E+01  2.11782279480E+01
  2.14553422516E+01  2.17360825592E+01  2.20204963164E+01  2.23086315899E+01
  2.26005370752E+01  2.28962621051E+01  2.31958566578E+01  2.34993713654E+01
  2.38068575228E+01  2.41183670957E+01  2.44339527301E+01  2.47536677606E+01
  2.50775662200E+01  2.54057028477E+01  2.57381330996E+01  2.60749131573E+01
  2.64160999374E+01  2.67617511012E+01  2.71119250647E+01  2.74666810080E+01
  2.78260788858E+01  2.81901794372E+01  2.85590441960E+01  2.89327355012E+01
  2.93113165076E+01  2.96948511963E+01  3.00834043854E+01  3.04770417415E+01
  3.08758297903E+01  3.12798359277E+01  3.16891284318E+01  3.21037764741E+01
  3.25238501310E+01  3.29494203960E+01  3.33805591915E+01  3.38173393809E+01
  3.42598347812E+01  3.47081201750E+01  3.51622713238E+01  3.56223649802E+01
  3.60884789010E+01  3.65606918606E+01  3.70390836642E+01  3.75237351611E+01
  3.80147282585E+01  3.85121459355E+01  3.90160722568E+01  3.95265923872E+01
  4.00437926058E+01  4.05677603206E+01  4.10985840835E+01  4.16363536049E+01
  4.21811597691E+01  4.27330946498E+01  4.32922515252E+01  4.38587248941E+01
  4.44326104919E+01  4.50140053066E+01  4.56030075954E+01  4.61997169010E+01
  4.68042340687E+01  4.74166612634E+01  4.80371019866E+01  4.86656610945E+01
  4.93024448149E+01  4.99475607658E+01  5.06011179734E+01  5.12632268903E+01
  5.19339994146E+01  5.26135489084E+01  5.33019902172E+01  5.39994396892E+01
  5.47060151950E+01  5.54218361477E+01  5.61470235225E+01  5.68816998779E+01
  5.76259893760E+01  5.83800178035E+01  5.91439125929E+01  5.99178028443E+01
  6.07018193470E+01  6.14960946017E+01  6.23007628427E+01  6.31159600609E+01
  6.39418240266E+01  6.47784943127E+01  6.56261123186E+01  6.64848212936E+01
  6.73547663617E+01  6.82360945456E+01  6.91289547919E+01  7.00334979960E+01
  7.09498770281E+01  7.18782467582E+01  7.28187640830E+01  7.37715879524E+01
  7.47368793957E+01  7.57148015494E+01  7.67055196849E+01  7.77092012357E+01
  7.87260158265E+01  7.97561353014E+01  8.07997337529E+01  8.18569875518E+01
  8.29280753764E+01  8.40131782431E+01  8.51124795369E+01  8.62261650423E+01
  8.73544229748E+01  8.84974440127E+01  8.96554213293E+01  9.08285506255E+01
  9.20170301629E+01  9.32210607974E+01  9.44408460131E+01  9.56765919566E+01
  9.69285074717E+01  9.81968041354E+01  9.94816962927E+01  1.00783401093E+02
  1.02102138529E+02  1.03438131469E+02  1.04791605699E+02  1.06162789960E+02
  1.07551915985E+02  1.08959218540E+02  1.10384935462E+02  1.11829307701E+02
  1.13292579359E+02  1.14774997733E+02  1.16276813355E+02  1.17798280034E+02
  </PP_R>
  <PP_RAB>
  5.39387149005E-07  5.46444958305E-07  5.53595118104E-07  5.60838836795E-07
  5.68177338585E-07  5.75611863697E-07  5.83143668584E-07  5.90774026140E-07
  5.98504225911E-07  6.06335574322E-07  6.14269394887E-07  6.22307028442E-07
  6.30449833367E-07  6.38699185813E-07  6.47056479942E-07  6.55523128157E-07
  6.64100561340E-07  6.72790229099E-07  6.81593600007E-07  6.90512161857E-07
  6.99547421905E-07  7.08700907133E-07  7.17974164500E-07  7.27368761210E-07
  7.36886284973E-07  7.46528344271E-07  7.56296568636E-07  7.66192608921E-07
  7.76218137581E-07  7.86374848953E-07  7.96664459547E-07  8.07088708330E-07
  8.17649357027E-07  8.28348190410E-07  8.39187016609E-07  8.50167667412E-07
  8.61291998573E-07  8.72561890133E-07  8.83979246728E-07  8.95545997921E-07
  9.07264098518E-07  9.19135528908E-07  9.31162295389E-07  9.43346430515E-07
  9.55689993432E-07  9.68195070233E-07  9.80863774306E-07  9.93698246691E-07
  1.00670065644E-06  1.01987320100E-06  1.03321810656E-06  1.04673762844E-06
  1.06043405147E-06  1.07430969038E-06  1.08836689018E-06  1.10260802658E-06
  1.11703550635E-06  1.13165176779E-06  1.14645928107E-06  1.16146054870E-06
  1.17665810592E-06  1.19205452116E-06  1.20765239646E-06  1.22345436788E-06
  1.23946310601E-06  1.25568131635E-06  1.27211173982E-06  1.28875715320E-06
  1.30562036961E-06  1.32270423897E-06  1.34001164849E-06  1.35754552317E-06
  1.37530882628E-06  1.39330455985E-06  1.41153576521E-06  1.43000552347E-06
  1.44871695606E-06  1.46767322528E-06  1.48687753476E-06  1.50633313008E-06
  1.52604329929E-06  1.54601137344E-06  1.56624072720E-06  1.58673477937E-06
  1.60749699349E-06  1.62853087843E-06  1.64983998897E-06  1.67142792639E-06
  1.69329833911E-06  1.71545492328E-06  1.73790142341E-06  1.76064163302E-06
  1.78367939526E-06  1.80701860356E-06  1.83066320230E-06  1.85461718748E-06
  1.87888460738E-06  1.90346956326E-06  1.92837621001E-06  1.95360875694E-06
  1.97917146840E-06  2.00506866455E-06  2.03130472207E-06  2.05788407492E-06
  2.08481121509E-06  2.11209069331E-06  2.13972711988E-06  2.16772516543E-06
  2.19608956169E-06  2.22482510232E-06  2.25393664368E-06  2.28342910570E-06
  2.31330747267E-06  2.34357679412E-06  2.37424218561E-06  2.40530882969E-06
  2.43678197669E-06  2.46866694564E-06  2.50096912518E-06  2.53369397445E-06
  2.56684702404E-06  2.60043387688E-06  2.63446020924E-06  2.66893177164E-06
  2.70385438986E-06  2.73923396592E-06  2.77507647903E-06  2.81138798667E-06
  2.84817462557E-06  2.88544261276E-06  2.92319824663E-06  2.96144790795E-06
  3.00019806102E-06  3.03945525470E-06  3.07922612355E-06  3.11951738895E-06
  3.16033586021E-06  3.20168843576E-06  3.24358210427E-06  3.28602394587E-06
  3.32902113334E-06  3.37258093331E-06  3.41671070748E-06  3.46141791390E-06
  3.50671010818E-06  3.55259494481E-06  3.59908017845E-06  3.64617366520E-06
  3.69388336398E-06  3.74221733784E-06  3.79118375534E-06  3.84079089191E-06
  3.89104713129E-06  3.94196096690E-06  3.99354100328E-06  4.04579595761E-06
  4.09873466108E-06  4.15236606046E-06  4.20669921959E-06  4.26174332090E-06
  4.31750766698E-06  4.37400168213E-06  4.43123491397E-06  4.48921703506E-06
  4.54795784451E-06  4.60746726966E-06  4.66775536775E-06  4.72883232761E-06
  4.79070847138E-06  4.85339425629E-06  4.91690027638E-06  4.98123726432E-06
  5.04641609321E-06  5.11244777843E-06  5.17934347949E-06  5.24711450193E-06
  5.31577229921E-06  5.38532847466E-06  5.45579478344E-06  5.52718313453E-06
  5.59950559272E-06  5.67277438068E-06  5.74700188101E-06  5.82220063834E-06
  5.89838336143E-06  5.97556292536E-06  6.05375237363E-06  6.13296492047E-06
  6.21321395298E-06  6.29451303343E-06  6.37687590157E-06  6.46031647691E-06
  6.54484886111E-06  6.63048734035E-06  6.71724638773E-06  6.80514066574E-06
  6.89418502871E-06  6.98439452537E-06  7.07578440132E-06  7.16837010168E-06
  7.26216727365E-06  7.35719176917E-06  7.45345964761E-06  7.55098717847E-06
  7.64979084413E-06  7.74988734266E-06  7.85129359059E-06  7.95402672583E-06
  8.05810411051E-06  8.16354333397E-06  8.27036221568E-06  8.37857880829E-06
  8.48821140066E-06  8.59927852096E-06  8.71179893979E-06  8.82579167339E-06
  8.94127598678E-06  9.05827139709E-06  9.17679767683E-06  9.29687485722E-06
  9.41852323159E-06  9.54176335880E-06  9.66661606673E-06  9.79310245578E-06
  9.92124390246E-06  1.00510620630E-05  1.01825788769E-05  1.03158165709E-05
  1.04507976624E-05  1.05875449636E-05  1.07260815851E-05  1.08664309400E-05
  1.10086167475E-05  1.11526630374E-05  1.12985941540E-05  1.14464347599E-05
  1.15962098404E-05  1.17479447081E-05  1.19016650063E-05  1.20573967143E-05
  1.22151661510E-05  1.23749999799E-05  1.25369252132E-05  1.27009692167E-05
  1.28671597142E-05  1.30355247924E-05  1.32060929053E-05  1.33788928793E-05
  1.35539539180E-05  1.37313056072E-05  1.39109779198E-05  1.40930012207E-05
  1.42774062724E-05  1.44642242397E-05  1.46534866954E-05  1.48452256251E-05
  1.50394734334E-05  1.52362629484E-05  1.54356274281E-05  1.56376005656E-05
  1.58422164949E-05  1.60495097964E-05  1.62595155033E-05  1.64722691070E-05
  1.66878065633E-05  1.69061642987E-05  1.71273792162E-05  1.73514887014E-05
  1.75785306296E-05  1.78085433712E-05  1.80415657991E-05  1.82776372946E-05
  1.85167977542E-05  1.87590875968E-05  1.90045477698E-05  1.92532197566E-05
  1.95051455833E-05  1.97603678261E-05  2.00189296181E-05  2.02808746568E-05
  2.05462472117E-05  2.08150921312E-05  2.10874548508E-05  2.13633814005E-05
  2.16429184125E-05  2.19261131292E-05  2.22130134112E-05  2.25036677453E-05
  2.27981252529E-05  2.30964356979E-05  2.33986494954E-05  2.37048177205E-05
  2.40149921162E-05  2.43292251026E-05  2.46475697861E-05  2.49700799675E-05
  2.52968101518E-05  2.56278155573E-05  2.59631521246E-05  2.63028765264E-05
  2.66470461769E-05  2.69957192416E-05  2.73489546472E-05  2.77068120912E-05
  2.80693520524E-05  2.84366358008E-05  2.88087254085E-05  2.91856837592E-05
  2.95675745600E-05  2.99544623513E-05  3.03464125180E-05  3.07434913006E-05
  3.11457658065E-05  3.15533040209E-05  3.19661748188E-05  3.23844479763E-05
  3.28081941826E-05  3.32374850517E-05  3.36723931350E-05  3.41129919329E-05
  3.45593559076E-05  3.50115604957E-05  3.54696821208E-05  3.59337982067E-05
  3.64039871899E-05  3.68803285337E-05  3.73629027407E-05  3.78517913673E-05
  3.83470770366E-05  3.88488434533E-05  3.93571754170E-05  3.98721588369E-05
  4.03938807467E-05  4.09224293184E-05  4.14578938781E-05  4.20003649205E-05
  4.25499341245E-05  4.31066943687E-05  4.36707397468E-05  4.42421655839E-05
  4.48210684523E-05  4.54075461879E-05  4.60016979069E-05  4.66036240224E-05
  4.72134262612E-05  4.78312076814E-05  4.84570726896E-05  4.90911270584E-05