<UPF version="2.0.1">
  <PP_INFO>

 This pseudopotential file has been produced using the code
 ONCVPSP  (Optimized Norm-Conservinng Vanderbilt PSeudopotential)
 scalar-relativistic version 2.1.1, 03/26/2014 by D. R. Hamann
 The code is available through a link at URL www.mat-simresearch.com.
 Documentation with the package provides a full discription of the
 input data below.


 While it is not required under the terms of the GNU GPL, it is
 suggested that you cite D. R. Hamann, Phys. Rev. B 88, 085117 (2013)
 in any publication using these pseudopotentials.


 Copyright 2015 The Regents of the University of California
 
 This work is licensed under the Creative Commons Attribution-ShareAlike 
 4.0 International License. To view a copy of this license, visit 
 http://creativecommons.org/licenses/by-sa/4.0/ or send a letter to 
 Creative Commons, PO Box 1866, Mountain View, CA 94042, USA.
 
 This pseudopotential is part of the Schlipf-Gygi norm-conserving 
 pseudopotential library. Its construction parameters were tuned to 
 reproduce materials of a training set with very high accuracy and 
 should be suitable as a general purpose pseudopotential to treat a 
 variety of different compounds. For details of the construction and 
 testing of the pseudopotential please refer to:
 
 [insert reference to paper here]
 
 We kindly ask that you include this reference in all publications 
 associated to this pseudopotential.


    <PP_INPUTFILE>
# ATOM AND REFERENCE CONFIGURATION
# atsym  z    nc    nv    iexc   psfile
  Be  4.00     0     2     4      upf
#
#   n    l    f        energy (Ha)
    1    0    2.00
    2    0    2.00
#
# PSEUDOPOTENTIAL AND OPTIMIZATION
# lmax
    1
#
#   l,   rc,     ep,   ncon, nbas, qcut
    0   2.34873  -3.90326    5    8   7.76179
    1   1.89489   0.27661    5    8   7.99088
#
# LOCAL POTENTIAL
# lloc, lpopt,  rc(5),   dvloc0
    4    5   1.03128      0.00000
#
# VANDERBILT-KLEINMAN-BYLANDER PROJECTORs
# l, nproj, debl
    0    2   3.69710
    1    2   2.43154
#
# MODEL CORE CHARGE
# icmod, fcfact
    0   0.00000
#
# LOG DERIVATIVE ANALYSIS
# epsh1, epsh2, depsh
   -5.00    3.00    0.02
#
# OUTPUT GRID
# rlmax, drl
    6.00    0.01
#
# TEST CONFIGURATIONS
# ncnf
    0
# nvcnf
#   n    l    f
    </PP_INPUTFILE>
  </PP_INFO>
  <!--                               -->
  <!-- END OF HUMAN READABLE SECTION -->
  <!--                               -->
    <PP_HEADER
       generated="Generated using ONCVPSP code by D. R. Hamann"
       author="Martin Schlipf and Francois Gygi"
       date="150105"
       comment=""
       element="Be"
       pseudo_type="NC"
       relativistic="scalar"
       is_ultrasoft="F"
       is_paw="F"
       is_coulomb="F"
       has_so="F"
       has_wfc="F"
       has_gipaw="F"
       core_correction="F"
       functional="PBE"
       z_valence="    4.00"
       total_psenergy="  -1.31680819775E+01"
       rho_cutoff="   6.01000000000E+00"
       l_max="1"
       l_local="-1"
       mesh_size="   602"
       number_of_wfc="0"
       number_of_proj="4"/>
 <PP_MESH>
   <PP_R type="real"  size=" 602" columns="8">
    0.0000    0.0100    0.0200    0.0300    0.0400    0.0500    0.0600    0.0700
    0.0800    0.0900    0.1000    0.1100    0.1200    0.1300    0.1400    0.1500
    0.1600    0.1700    0.1800    0.1900    0.2000    0.2100    0.2200    0.2300
    0.2400    0.2500    0.2600    0.2700    0.2800    0.2900    0.3000    0.3100
    0.3200    0.3300    0.3400    0.3500    0.3600    0.3700    0.3800    0.3900
    0.4000    0.4100    0.4200    0.4300    0.4400    0.4500    0.4600    0.4700
    0.4800    0.4900    0.5000    0.5100    0.5200    0.5300    0.5400    0.5500
    0.5600    0.5700    0.5800    0.5900    0.6000    0.6100    0.6200    0.6300
    0.6400    0.6500    0.6600    0.6700    0.6800    0.6900    0.7000    0.7100
    0.7200    0.7300    0.7400    0.7500    0.7600    0.7700    0.7800    0.7900
    0.8000    0.8100    0.8200    0.8300    0.8400    0.8500    0.8600    0.8700
    0.8800    0.8900    0.9000    0.9100    0.9200    0.9300    0.9400    0.9500
    0.9600    0.9700    0.9800    0.9900    1.0000    1.0100    1.0200    1.0300
    1.0400    1.0500    1.0600    1.0700    1.0800    1.0900    1.1000    1.1100
    1.1200    1.1300    1.1400    1.1500    1.1600    1.1700    1.1800    1.1900
    1.2000    1.2100    1.2200    1.2300    1.2400    1.2500    1.2600    1.2700
    1.2800    1.2900    1.3000    1.3100    1.3200    1.3300    1.3400    1.3500
    1.3600    1.3700    1.3800    1.3900    1.4000    1.4100    1.4200    1.4300
    1.4400    1.4500    1.4600    1.4700    1.4800    1.4900    1.5000    1.5100
    1.5200    1.5300    1.5400    1.5500    1.5600    1.5700    1.5800    1.5900
    1.6000    1.6100    1.6200    1.6300    1.6400    1.6500    1.6600    1.6700
    1.6800    1.6900    1.7000    1.7100    1.7200    1.7300    1.7400    1.7500
    1.7600    1.7700    1.7800    1.7900    1.8000    1.8100    1.8200    1.8300
    1.8400    1.8500    1.8600    1.8700    1.8800    1.8900    1.9000    1.9100
    1.9200    1.9300    1.9400    1.9500    1.9600    1.9700    1.9800    1.9900
    2.0000    2.0100    2.0200    2.0300    2.0400    2.0500    2.0600    2.0700
    2.0800    2.0900    2.1000    2.1100    2.1200    2.1300    2.1400    2.1500
    2.1600    2.1700    2.1800    2.1900    2.2000    2.2100    2.2200    2.2300
    2.2400    2.2500    2.2600    2.2700    2.2800    2.2900    2.3000    2.3100
    2.3200    2.3300    2.3400    2.3500    2.3600    2.3700    2.3800    2.3900
    2.4000    2.4100    2.4200    2.4300    2.4400    2.4500    2.4600    2.4700
    2.4800    2.4900    2.5000    2.5100    2.5200    2.5300    2.5400    2.5500
    2.5600    2.5700    2.5800    2.5900    2.6000    2.6100    2.6200    2.6300
    2.6400    2.6500    2.6600    2.6700    2.6800    2.6900    2.7000    2.7100
    2.7200    2.7300    2.7400    2.7500    2.7600    2.7700    2.7800    2.7900
    2.8000    2.8100    2.8200    2.8300    2.8400    2.8500    2.8600    2.8700
    2.8800    2.8900    2.9000    2.9100    2.9200    2.9300    2.9400    2.9500
    2.9600    2.9700    2.9800    2.9900    3.0000    3.0100    3.0200    3.0300
    3.0400    3.0500    3.0600    3.0700    3.0800    3.0900    3.1000    3.1100
    3.1200    3.1300    3.1400    3.1500    3.1600    3.1700    3.1800    3.1900
    3.2000    3.2100    3.2200    3.2300    3.2400    3.2500    3.2600    3.2700
    3.2800    3.2900    3.3000    3.3100    3.3200    3.3300    3.3400    3.3500
    3.3600    3.3700    3.3800    3.3900    3.4000    3.4100    3.4200    3.4300
    3.4400    3.4500    3.4600    3.4700    3.4800    3.4900    3.5000    3.5100
    3.5200    3.5300    3.5400    3.5500    3.5600    3.5700    3.5800    3.5900
    3.6000    3.6100    3.6200    3.6300    3.6400    3.6500    3.6600    3.6700
    3.6800    3.6900    3.7000    3.7100    3.7200    3.7300    3.7400    3.7500
    3.7600    3.7700    3.7800    3.7900    3.8000    3.8100    3.8200    3.8300
    3.8400    3.8500    3.8600    3.8700    3.8800    3.8900    3.9000    3.9100
    3.9200    3.9300    3.9400    3.9500    3.9600    3.9700    3.9800    3.9900
    4.0000    4.0100    4.0200    4.0300    4.0400    4.0500    4.0600    4.0700
    4.0800    4.0900    4.1000    4.1100    4.1200    4.1300    4.1400    4.1500
    4.1600    4.1700    4.1800    4.1900    4.2000    4.2100    4.2200    4.2300
    4.2400    4.2500    4.2600    4.2700    4.2800    4.2900    4.3000    4.3100
    4.3200    4.3300    4.3400    4.3500    4.3600    4.3700    4.3800    4.3900
    4.4000    4.4100    4.4200    4.4300    4.4400    4.4500    4.4600    4.4700
    4.4800    4.4900    4.5000    4.5100    4.5200    4.5300    4.5400    4.5500
    4.5600    4.5700    4.5800    4.5900    4.6000    4.6100    4.6200    4.6300
    4.6400    4.6500    4.6600    4.6700    4.6800    4.6900    4.7000    4.7100
    4.7200    4.7300    4.7400    4.7500    4.7600    4.7700    4.7800    4.7900
    4.8000    4.8100    4.8200    4.8300    4.8400    4.8500    4.8600    4.8700
    4.8800    4.8900    4.9000    4.9100    4.9200    4.9300    4.9400    4.9500
    4.9600    4.9700    4.9800    4.9900    5.0000    5.0100    5.0200    5.0300
    5.0400    5.0500    5.0600    5.0700    5.0800    5.0900    5.1000    5.1100
    5.1200    5.1300    5.1400    5.1500    5.1600    5.1700    5.1800    5.1900
    5.2000    5.2100    5.2200    5.2300    5.2400    5.2500    5.2600    5.2700
    5.2800    5.2900    5.3000    5.3100    5.3200    5.3300    5.3400    5.3500
    5.3600    5.3700    5.3800    5.3900    5.4000    5.4100    5.4200    5.4300
    5.4400    5.4500    5.4600    5.4700    5.4800    5.4900    5.5000    5.5100
    5.5200    5.5300    5.5400    5.5500    5.5600    5.5700    5.5800    5.5900
    5.6000    5.6100    5.6200    5.6300    5.6400    5.6500    5.6600    5.6700
    5.6800    5.6900    5.7000    5.7100    5.7200    5.7300    5.7400    5.7500
    5.7600    5.7700    5.7800    5.7900    5.8000    5.8100    5.8200    5.8300
    5.8400    5.8500    5.8600    5.8700    5.8800    5.8900    5.9000    5.9100
    5.9200    5.9300    5.9400    5.9500    5.9600    5.9700    5.9800    5.9900
    6.0000    6.0100
   </PP_R>
   <PP_RAB type="real"  size=" 602" columns="8">
    0.0100    0.0100    0.0100    0.0100    0.0100    0.0100    0.0100    0.0100
    0.0100    0.0100    0.0100    0.0100    0.0100    0.0100    0.0100    0.0100
    0.0100    0.0100    0.0100    0.0100    0.0100    0.0100    0.0100    0.0100
    0.0100    0.0100    0.0100    0.0100    0.0100    0.0100    0.0100    0.0100
    0.0100    0.0100    0.0100    0.0100    0.0100    0.0100    0.0100    0.0100
    0.0100    0.0100    0.0100    0.0100    0.0100    0.0100    0.0100    0.0100
    0.0100    0.0100    0.0100    0.0100    0.0100    0.0100    0.0100    0.0100
    0.0100    0.0100    0.0100    0.0100    0.0100    0.0100    0.0100    0.0100
    0.0100    0.0100    0.0100    0.0100    0.0100    0.0100    0.0100    0.0100
    0.0100    0.0100    0.0100    0.0100    0.0100    0.0100    0.0100    0.0100
    0.0100    0.0100    0.0100    0.0100    0.0100    0.0100    0.0100    0.0100
    0.0100    0.0100    0.0100    0.0100    0.0100    0.0100    0.0100    0.0100
    0.0100    0.0100    0.0100    0.0100    0.0100    0.0100    0.0100    0.0100
    0.0100    0.0100    0.0100    0.0100    0.0100    0.0100    0.0100    0.0100
    0.0100    0.0100    0.0100    0.0100    0.0100    0.0100    0.0100    0.0100
    0.0100    0.0100    0.0100    0.0100    0.0100    0.0100    0.0100    0.0100
    0.0100    0.0100    0.0100    0.0100    0.0100    0.0100    0.0100    0.0100
    0.0100    0.0100    0.0100    0.0100    0.0100    0.0100    0.0100    0.0100
    0.0100    0.0100    0.0100    0.0100    0.0100    0.0100    0.0100    0.0100
    0.0100    0.0100    0.0100    0.0100    0.0100    0.0100    0.0100    0.0100
    0.0100    0.0100    0.0100    0.0100    0.0100    0.0100    0.0100    0.0100
    0.0100    0.0100    0.0100    0.0100    0.0100    0.0100    0.0100    0.0100
    0.0100    0.0100    0.0100    0.0100    0.0100    0.0100    0.0100    0.0100
    0.0100    0.0100    0.0100    0.0100    0.0100    0.0100    0.0100    0.0100
    0.0100    0.0100    0.0100    0.0100    0.0100    0.0100    0.0100    0.0100
    0.0100    0.0100    0.0100    0.0100    0.0100    0.0100    0.0100    0.0100
    0.0100    0.0100    0.0100    0.0100    0.0100    0.0100    0.0100    0.0100
    0.0100    0.0100    0.0100    0.0100    0.0100    0.0100    0.0100    0.0100
    0.0100    0.0100    0.0100    0.0100    0.0100    0.0100    0.0100    0.0100
    0.0100    0.0100    0.0100    0.0100    0.0100    0.0100    0.0100    0.0100
    0.0100    0.0100    0.0100    0.0100    0.0100    0.0100    0.0100    0.0100
    0.0100    0.0100    0.0100    0.0100    0.0100    0.0100    0.0100    0.0100
    0.0100    0.0100    0.0100    0.0100    0.0100    0.0100    0.0100    0.0100
    0.0100    0.0100    0.0100    0.0100    0.0100    0.0100    0.0100    0.0100
    0.0100    0.0100    0.0100    0.0100    0.0100    0.0100    0.0100    0.0100
    0.0100    0.0100    0.0100    0.0100    0.0100    0.0100    0.0100    0.0100
    0.0100    0.0100    0.0100    0.0100    0.0100    0.0100    0.0100    0.0100
    0.0100    0.0100    0.0100    0.0100    0.0100    0.0100    0.0100    0.0100
    0.0100    0.0100    0.0100    0.0100    0.0100    0.0100    0.0100    0.0100
    0.0100    0.0100    0.0100    0.0100    0.0100    0.0100    0.0100    0.0100
    0.0100    0.0100    0.0100    0.0100    0.0100    0.0100    0.0100    0.0100
    0.0100    0.0100    0.0100    0.0100    0.0100    0.0100    0.0100    0.0100
    0.0100    0.0100    0.0100    0.0100    0.0100    0.0100    0.0100    0.0100
    0.0100    0.0100    0.0100    0.0100    0.0100    0.0100    0.0100    0.0100
    0.0100    0.0100    0.0100    0.0100    0.0100    0.0100    0.0100    0.0100
    0.0100    0.0100    0.0100    0.0100    0.0100    0.0100    0.0100    0.0100
    0.0100    0.0100    0.0100    0.0100    0.0100    0.0100    0.0100    0.0100
    0.0100    0.0100    0.0100    0.0100    0.0100    0.0100    0.0100    0.0100
    0.0100    0.0100    0.0100    0.0100    0.0100    0.0100    0.0100    0.0100
    0.0100    0.0100    0.0100    0.0100    0.0100    0.0100    0.0100    0.0100
    0.0100    0.0100    0.0100    0.0100    0.0100    0.0100    0.0100    0.0100
    0.0100    0.0100    0.0100    0.0100    0.0100    0.0100    0.0100    0.0100
    0.0100    0.0100    0.0100    0.0100    0.0100    0.0100    0.0100    0.0100
    0.0100    0.0100    0.0100    0.0100    0.0100    0.0100    0.0100    0.0100
    0.0100    0.0100    0.0100    0.0100    0.0100    0.0100    0.0100    0.0100
    0.0100    0.0100    0.0100    0.0100    0.0100    0.0100    0.0100    0.0100
    0.0100    0.0100    0.0100    0.0100    0.0100    0.0100    0.0100    0.0100
    0.0100    0.0100    0.0100    0.0100    0.0100    0.0100    0.0100    0.0100
    0.0100    0.0100    0.0100    0.0100    0.0100    0.0100    0.0100    0.0100
    0.0100    0.0100    0.0100    0.0100    0.0100    0.0100    0.0100    0.0100
    0.0100    0.0100    0.0100    0.0100    0.0100    0.0100    0.0100    0.0100
    0.0100    0.0100    0.0100    0.0100    0.0100    0.0100    0.0100    0.0100
    0.0100    0.0100    0.0100    0.0100    0.0100    0.0100    0.0100    0.0100
    0.0100    0.0100    0.0100    0.0100    0.0100    0.0100    0.0100    0.0100
    0.0100    0.0100    0.0100    0.0100    0.0100    0.0100    0.0100    0.0100
    0.0100    0.0100    0.0100    0.0100    0.0100    0.0100    0.0100    0.0100
    0.0100    0.0100    0.0100    0.0100    0.0100    0.0100    0.0100    0.0100
    0.0100    0.0100    0.0100    0.0100    0.0100    0.0100    0.0100    0.0100
    0.0100    0.0100    0.0100    0.0100    0.0100    0.0100    0.0100    0.0100
    0.0100    0.0100    0.0100    0.0100    0.0100    0.0100    0.0100    0.0100
    0.0100    0.0100    0.0100    0.0100    0.0100    0.0100    0.0100    0.0100
    0.0100    0.0100    0.0100    0.0100    0.0100    0.0100    0.0100    0.0100
    0.0100    0.0100    0.0100    0.0100    0.0100    0.0100    0.0100    0.0100
    0.0100    0.0100    0.0100    0.0100    0.0100    0.0100    0.0100    0.0100
    0.0100    0.0100    0.0100    0.0100    0.0100    0.0100    0.0100    0.0100
    0.0100    0.0100
   </PP_RAB>
 </PP_MESH>
  <PP_LOCAL type="real"  size=" 602" columns="4">
    4.2188427408E-01    4.1907442287E-01    4.1028756974E-01    3.9556788744E-01
    3.7495954871E-01    3.4848692422E-01    3.1617554097E-01    2.7805517467E-01
    2.3416072458E-01    1.8453260664E-01    1.2921700895E-01    6.8266100374E-02
    1.7382200541E-03   -7.0301944318E-02   -1.4778318796E-01   -2.3062763176E-01
   -3.1875057840E-01   -4.1206038458E-01   -5.1045835153E-01   -6.1383863498E-01
   -7.2208817998E-01   -8.3508667535E-01   -9.5270653666E-01   -1.0748129112E+00
   -1.2012637111E+00   -1.3319096685E+00   -1.4665944192E+00   -1.6051546060E+00
   -1.7474200119E+00   -1.8932137105E+00   -2.0423522390E+00   -2.1946457925E+00
   -2.3498984393E+00   -2.5079083526E+00   -2.6684680453E+00   -2.8313646624E+00
   -2.9963802191E+00   -3.1632919253E+00   -3.3318724766E+00   -3.5018903551E+00
   -3.6731101695E+00   -3.8452929801E+00   -4.0181966366E+00   -4.1915761241E+00
   -4.3651839121E+00   -4.5387703090E+00   -4.7120838181E+00   -4.8848714944E+00
   -5.0568793026E+00   -5.2278524660E+00   -5.3975358201E+00   -5.5656741583E+00
   -5.7320125581E+00   -5.8962967257E+00   -6.0582732884E+00   -6.2176901117E+00
   -6.3742965858E+00   -6.5278438803E+00   -6.6780852318E+00   -6.8247761565E+00
   -6.9676746879E+00   -7.1065416474E+00   -7.2411407305E+00   -7.3712389419E+00
   -7.4966066738E+00   -7.6170179435E+00   -7.7322509443E+00   -7.8420882030E+00
   -7.9463170577E+00   -8.0447302583E+00   -8.1371267536E+00   -8.2233123331E+00
   -8.3031006518E+00   -8.3763143240E+00   -8.4427862001E+00   -8.5023611556E+00
   -8.5548973801E+00   -8.6002682832E+00   -8.6383644106E+00   -8.6690954534E+00
   -8.6923923107E+00   -8.7082091647E+00   -8.7165255208E+00   -8.7173481676E+00
   -8.7107130153E+00   -8.6966867721E+00   -8.6753684322E+00   -8.6468905521E+00
   -8.6114203074E+00   -8.5691603314E+00   -8.5203493498E+00   -8.4652626365E+00
   -8.4042123260E+00   -8.3375476268E+00   -8.2656549869E+00   -8.1889582666E+00
   -8.1079189259E+00   -8.0230350474E+00   -7.9348459967E+00   -7.8439293186E+00
   -7.7509030006E+00   -7.6564268188E+00   -7.5612039175E+00   -7.4659808454E+00
   -7.3715507269E+00   -7.2788043500E+00   -7.1887257629E+00   -7.1023476759E+00
   -7.0206934935E+00   -6.9446847600E+00   -6.8750363960E+00   -6.8122226334E+00
   -6.7564556933E+00   -6.7076520615E+00   -6.6654218434E+00   -6.6291954673E+00
   -6.5982521628E+00   -6.5717537505E+00   -6.5488310219E+00   -6.5286128358E+00
   -6.5102330644E+00   -6.4928656033E+00   -6.4757135773E+00   -6.4580082004E+00
   -6.4390399563E+00   -6.4181790632E+00   -6.3948559953E+00   -6.3686400368E+00
   -6.3392628016E+00   -6.3065460943E+00   -6.2705293760E+00   -6.2313904066E+00
   -6.1893841947E+00   -6.1449335379E+00   -6.0984765113E+00   -6.0505014222E+00
   -6.0014852895E+00   -5.9518846432E+00   -5.9021141771E+00   -5.8525051479E+00
   -5.8033794624E+00   -5.7549311926E+00   -5.7073433695E+00   -5.6607303738E+00
   -5.6151529684E+00   -5.5706640869E+00   -5.5272524162E+00   -5.4849147024E+00
   -5.4436154710E+00   -5.4033175751E+00   -5.3639746520E+00   -5.3255381171E+00
   -5.2879578379E+00   -5.2511861368E+00   -5.2151745451E+00   -5.1798803311E+00
   -5.1452606204E+00   -5.1112779420E+00   -5.0778963336E+00   -5.0450834155E+00
   -5.0128097572E+00   -4.9810476419E+00   -4.9497731603E+00   -4.9189627277E+00
   -4.8885968563E+00   -4.8586555443E+00   -4.8291227635E+00   -4.7999815776E+00
   -4.7712186534E+00   -4.7428196618E+00   -4.7147733811E+00   -4.6870677000E+00
   -4.6596930691E+00   -4.6326392713E+00   -4.6058980949E+00   -4.5794609517E+00
   -4.5533207075E+00   -4.5274701810E+00   -4.5019031108E+00   -4.4766135308E+00
   -4.4515958900E+00   -4.4268452633E+00   -4.4023566845E+00   -4.3781261009E+00
   -4.3541490394E+00   -4.3304221415E+00   -4.3069413919E+00   -4.2837038703E+00
   -4.2607061636E+00   -4.2379454781E+00   -4.2154189408E+00   -4.1931238575E+00
   -4.1710577354E+00   -4.1492179830E+00   -4.1276023175E+00   -4.1062082856E+00
   -4.0850336482E+00   -4.0640761053E+00   -4.0433333821E+00   -4.0228032253E+00
   -4.0024833709E+00   -3.9823714985E+00   -3.9624653594E+00   -3.9427625500E+00
   -3.9232607304E+00   -3.9039574954E+00   -3.8848503336E+00   -3.8659368619E+00
   -3.8472144337E+00   -3.8286805323E+00   -3.8103325401E+00   -3.7921677655E+00
   -3.7741836068E+00   -3.7563772903E+00   -3.7387461130E+00   -3.7212873428E+00
   -3.7039982189E+00   -3.6868759801E+00   -3.6699179101E+00   -3.6531212548E+00
   -3.6364832876E+00   -3.6200013918E+00   -3.6036728133E+00   -3.5874950284E+00
   -3.5714655150E+00   -3.5555815926E+00   -3.5398410400E+00   -3.5242413831E+00
   -3.5087802665E+00   -3.4934556606E+00   -3.4782652081E+00   -3.4632069723E+00
   -3.4482791072E+00   -3.4334794283E+00   -3.4188064190E+00   -3.4042583665E+00
   -3.3898334300E+00   -3.3755302553E+00   -3.3613472769E+00   -3.3472829481E+00
   -3.3333358757E+00   -3.3195045739E+00   -3.3057875990E+00   -3.2921835680E+00
   -3.2786910004E+00   -3.2653085450E+00   -3.2520349230E+00   -3.2388687561E+00
   -3.2258087720E+00   -3.2128537241E+00   -3.2000022797E+00   -3.1872532380E+00
   -3.1746054131E+00   -3.1620575356E+00   -3.1496084626E+00   -3.1372570626E+00
   -3.1250021253E+00   -3.1128425562E+00   -3.1007772795E+00   -3.0888051446E+00
   -3.0769250959E+00   -3.0651361133E+00   -3.0534371058E+00   -3.0418270478E+00
   -3.0303049749E+00   -3.0188698562E+00   -3.0075206877E+00   -2.9962565604E+00
   -2.9850765039E+00   -2.9739795284E+00   -2.9629647795E+00   -2.9520313462E+00
   -2.9411782511E+00   -2.9304046889E+00   -2.9197097922E+00   -2.9090926421E+00
   -2.8985524297E+00   -2.8880883460E+00   -2.8776995326E+00   -2.8673851693E+00
   -2.8571445052E+00   -2.8469767429E+00   -2.8368810470E+00   -2.8268567212E+00
   -2.8169030129E+00   -2.8070191218E+00   -2.7972043502E+00   -2.7874579977E+00
   -2.7777793255E+00   -2.7681676049E+00   -2.7586221940E+00   -2.7491424085E+00
   -2.7397275114E+00   -2.7303768903E+00   -2.7210899008E+00   -2.7118658669E+00
   -2.7027041333E+00   -2.6936041154E+00   -2.6845651913E+00   -2.6755866899E+00
   -2.6666680527E+00   -2.6578086960E+00   -2.6490080110E+00   -2.6402653855E+00
   -2.6315802959E+00   -2.6229521767E+00   -2.6143804261E+00   -2.6058645113E+00
   -2.5974039136E+00   -2.5889980939E+00   -2.5806464611E+00   -2.5723485513E+00
   -2.5641038516E+00   -2.5559118330E+00   -2.5477719640E+00   -2.5396837933E+00
   -2.5316468309E+00   -2.5236605591E+00   -2.5157245014E+00   -2.5078382163E+00
   -2.5000012366E+00   -2.4922130581E+00   -2.4844732513E+00   -2.4767813855E+00
   -2.4691370152E+00   -2.4615396517E+00   -2.4539889046E+00   -2.4464843554E+00
   -2.4390255794E+00   -2.4316121051E+00   -2.4242435734E+00   -2.4169195800E+00
   -2.4096397173E+00   -2.4024035399E+00   -2.3952107057E+00   -2.3880608287E+00
   -2.3809535195E+00   -2.3738883541E+00   -2.3668650068E+00   -2.3598831095E+00
   -2.3529422924E+00   -2.3460421471E+00   -2.3391823653E+00   -2.3323625960E+00
   -2.3255824884E+00   -2.3188416499E+00   -2.3121397849E+00   -2.3054765606E+00
   -2.2988516426E+00   -2.2922646604E+00   -2.2857153206E+00   -2.2792033117E+00
   -2.2727283148E+00   -2.2662899830E+00   -2.2598880196E+00   -2.2535221357E+00
   -2.2471920271E+00   -2.2408973718E+00   -2.2346378654E+00   -2.2284132420E+00
   -2.2222232117E+00   -2.2160674785E+00   -2.2099457262E+00   -2.2038577125E+00
   -2.1978031610E+00   -2.1917817953E+00   -2.1857933068E+00   -2.1798374541E+00
   -2.1739139811E+00   -2.1680226243E+00   -2.1621631030E+00   -2.1563351538E+00
   -2.1505385476E+00   -2.1447730331E+00   -2.1390383590E+00   -2.1333342373E+00
   -2.1276604649E+00   -2.1220168024E+00   -2.1164030103E+00   -2.1108188299E+00
   -2.1052640279E+00   -2.0997383943E+00   -2.0942417007E+00   -2.0887737187E+00
   -2.0833341855E+00   -2.0779229162E+00   -2.0725396941E+00   -2.0671843015E+00
   -2.0618565072E+00   -2.0565560883E+00   -2.0512828594E+00   -2.0460366129E+00
   -2.0408171411E+00   -2.0356242117E+00   -2.0304576389E+00   -2.0253172345E+00
   -2.0202028007E+00   -2.0151141390E+00   -2.0100510196E+00   -2.0050132861E+00
   -2.0000007498E+00   -1.9950132222E+00   -1.9900505059E+00   -1.9851123983E+00
   -1.9801987439E+00   -1.9753093629E+00   -1.9704440754E+00   -1.9656026874E+00
   -1.9607850179E+00   -1.9559909140E+00   -1.9512202042E+00   -1.9464727168E+00
   -1.9417482629E+00   -1.9370466784E+00   -1.9323678140E+00   -1.9277115062E+00
   -1.9230775915E+00   -1.9184658874E+00   -1.9138762418E+00   -1.9093085107E+00
   -1.9047625384E+00   -1.9002381689E+00   -1.8957352276E+00   -1.8912535699E+00
   -1.8867930588E+00   -1.8823535458E+00   -1.8779348820E+00   -1.8735369024E+00
   -1.8691594655E+00   -1.8648024427E+00   -1.8604656921E+00   -1.8561490722E+00
   -1.8518524283E+00   -1.8475756182E+00   -1.8433185230E+00   -1.8390810075E+00
   -1.8348629365E+00   -1.8306641675E+00   -1.8264845538E+00   -1.8223239872E+00
   -1.8181823387E+00   -1.8140594796E+00   -1.8099552805E+00   -1.8058695869E+00
   -1.8018023022E+00   -1.7977533037E+00   -1.7937224684E+00   -1.7897096735E+00
   -1.7857147771E+00   -1.7817376718E+00   -1.7777782483E+00   -1.7738363894E+00
   -1.7699119779E+00   -1.7660048876E+00   -1.7621149955E+00   -1.7582422068E+00
   -1.7543864099E+00   -1.7505474932E+00   -1.7467253450E+00   -1.7429198306E+00
   -1.7391308639E+00   -1.7353583407E+00   -1.7316021546E+00   -1.7278621990E+00
   -1.7241383569E+00   -1.7204305202E+00   -1.7167386016E+00   -1.7130624997E+00
   -1.7094021131E+00   -1.7057573403E+00   -1.7021280589E+00   -1.6985141889E+00
   -1.6949156368E+00   -1.6913323060E+00   -1.6877640997E+00   -1.6842109156E+00
   -1.6806726452E+00   -1.6771492145E+00   -1.6736405312E+00   -1.6701465031E+00
   -1.6666670380E+00   -1.6632020311E+00   -1.6597513939E+00   -1.6563150494E+00
   -1.6528929096E+00   -1.6494848866E+00   -1.6460908925E+00   -1.6427108219E+00
   -1.6393446020E+00   -1.6359921542E+00   -1.6326533947E+00   -1.6293282397E+00
   -1.6260166052E+00   -1.6227183871E+00   -1.6194335239E+00   -1.6161619372E+00
   -1.6129035470E+00   -1.6096582735E+00   -1.6064260360E+00   -1.6032067346E+00
   -1.6000003137E+00   -1.5968066971E+00   -1.5936258086E+00   -1.5904575720E+00
   -1.5873019099E+00   -1.5841587276E+00   -1.5810279721E+00   -1.5779095709E+00
   -1.5748034512E+00   -1.5717095403E+00   -1.5686277656E+00   -1.5655580341E+00
   -1.5625002967E+00   -1.5594544843E+00   -1.5564205275E+00   -1.5533983570E+00
   -1.5503879036E+00   -1.5473890802E+00   -1.5444018357E+00   -1.5414261065E+00
   -1.5384618264E+00   -1.5355089294E+00   -1.5325673495E+00   -1.5296370069E+00
   -1.5267178453E+00   -1.5238098076E+00   -1.5209128310E+00   -1.5180268524E+00
   -1.5151518089E+00   -1.5122876292E+00   -1.5094342485E+00   -1.5065916181E+00
   -1.5037596779E+00   -1.5009383679E+00   -1.4981276282E+00   -1.4953273971E+00
   -1.4925375996E+00   -1.4897581952E+00   -1.4869891266E+00   -1.4842303364E+00
   -1.4814817674E+00   -1.4787433624E+00   -1.4760150515E+00   -1.4732967853E+00
   -1.4705885157E+00   -1.4678901881E+00   -1.4652017478E+00   -1.4625231405E+00
   -1.4598543086E+00   -1.4571951861E+00   -1.4545457358E+00   -1.4519059055E+00
   -1.4492756432E+00   -1.4466548969E+00   -1.4440436145E+00   -1.4414417336E+00
   -1.4388492067E+00   -1.4362659914E+00   -1.4336920381E+00   -1.4311272971E+00
   -1.4285717190E+00   -1.4260252540E+00   -1.4234878367E+00   -1.4209594344E+00
   -1.4184400009E+00   -1.4159294888E+00   -1.4134278509E+00   -1.4109350398E+00
   -1.4084510048E+00   -1.4059756894E+00   -1.4035090615E+00   -1.4010510761E+00
   -1.3986016881E+00   -1.3961608523E+00   -1.3937285238E+00   -1.3913046509E+00
   -1.3888891859E+00   -1.3864820956E+00   -1.3840833372E+00   -1.3816928675E+00
   -1.3793106437E+00   -1.3769366226E+00   -1.3745707534E+00   -1.3722129940E+00
   -1.3698633113E+00   -1.3675216644E+00   -1.3651880123E+00   -1.3628623140E+00
   -1.3605445285E+00   -1.3582346067E+00   -1.3559325092E+00   -1.3536382044E+00
   -1.3513516532E+00   -1.3490728165E+00   -1.3468016553E+00   -1.3445381304E+00
   -1.3422821959E+00   -1.3400338121E+00   -1.3377929500E+00   -1.3355595724E+00
   -1.3333336420E+00   -1.3311151216E+00
  </PP_LOCAL>
 <PP_NONLOCAL>
   <PP_BETA.1
       type="real"
       size=" 602"
       columns="4"
       index="1"
       angular_momentum="0"
       cutoff_radius_index=" 238"
       cutoff_radius="    2.3700000000E+00" >
    0.0000000000E+00    7.6779154041E-02    1.5336386502E-01    2.2956044783E-01
    3.0517672958E-01    3.8002279620E-01    4.5391172800E-01    5.2666032024E-01
    5.9808978538E-01    6.6802643338E-01    7.3630232694E-01    8.0275590825E-01
    8.6723259443E-01    9.2958533868E-01    9.8967515461E-01    1.0473716012E+00
    1.1025532262E+00    1.1551079659E+00    1.2049335000E+00    1.2519375593E+00
    1.2960381850E+00    1.3371639406E+00    1.3752540719E+00    1.4102586189E+00
    1.4421384759E+00    1.4708654027E+00    1.4964219851E+00    1.5188015473E+00
    1.5380080149E+00    1.5540557319E+00    1.5669692321E+00    1.5767829655E+00
    1.5835409845E+00    1.5872965894E+00    1.5881119325E+00    1.5860575987E+00
    1.5812121334E+00    1.5736615638E+00    1.5634988796E+00    1.5508234852E+00
    1.5357406475E+00    1.5183609147E+00    1.4987995236E+00    1.4771757957E+00
    1.4536125269E+00    1.4282353716E+00    1.4011722269E+00    1.3725526193E+00
    1.3425071081E+00    1.3111666726E+00    1.2786621069E+00    1.2451234838E+00
    1.2106796286E+00    1.1754574518E+00    1.1395816100E+00    1.1031738980E+00
    1.0663528275E+00    1.0292332320E+00    9.9192579319E-01    9.5453674736E-01
    9.1716753783E-01    8.7991442845E-01    8.4286848447E-01    8.0611499899E-01
    7.6973358654E-01    7.3379804129E-01    6.9837595652E-01    6.6352892285E-01
    6.2931243834E-01    5.9577586644E-01    5.6296242952E-01    5.3090939435E-01
    4.9964813926E-01    4.6920430378E-01    4.3959795982E-01    4.1084377479E-01
    3.8295131693E-01    3.5592529025E-01    3.2976582187E-01    3.0446877286E-01
    2.8002607045E-01    2.5642605953E-01    2.3365387111E-01    2.1169180575E-01
    1.9051972970E-01    1.7011548161E-01    1.5045528762E-01    1.3151418291E-01
    1.1326643743E-01    9.5685983978E-02    7.8746846551E-02    6.2423567098E-02
    4.6691628825E-02    3.1527874209E-02    1.6910916034E-02    2.8215397655E-03
   -1.0756910469E-02   -2.3838320297E-02   -3.6432911902E-02   -4.8547370935E-02
   -6.0184356030E-02   -7.1342171790E-02   -8.2014459981E-02   -9.2190121040E-02