<UPF version="2.0.1">
  <PP_INFO>

 This pseudopotential file has been produced using the code
 ONCVPSP  (Optimized Norm-Conservinng Vanderbilt PSeudopotential)
 scalar-relativistic version 2.1.1, 03/26/2014 by D. R. Hamann
 The code is available through a link at URL www.mat-simresearch.com.
 Documentation with the package provides a full discription of the
 input data below.


 While it is not required under the terms of the GNU GPL, it is
 suggested that you cite D. R. Hamann, Phys. Rev. B 88, 085117 (2013)
 in any publication using these pseudopotentials.


 Copyright 2015 The Regents of the University of California
 
 This work is licensed under the Creative Commons Attribution-ShareAlike 
 4.0 International License. To view a copy of this license, visit 
 http://creativecommons.org/licenses/by-sa/4.0/ or send a letter to 
 Creative Commons, PO Box 1866, Mountain View, CA 94042, USA.
 
 This pseudopotential is part of the Schlipf-Gygi norm-conserving 
 pseudopotential library. Its construction parameters were tuned to 
 reproduce materials of a training set with very high accuracy and 
 should be suitable as a general purpose pseudopotential to treat a 
 variety of different compounds. For details of the construction and 
 testing of the pseudopotential please refer to:
 
 [insert reference to paper here]
 
 We kindly ask that you include this reference in all publications 
 associated to this pseudopotential.


    <PP_INPUTFILE>
# ATOM AND REFERENCE CONFIGURATION
# atsym  z    nc    nv    iexc   psfile
  Ga 31.00     5     3     4      upf
#
#   n    l    f        energy (Ha)
    1    0    2.00
    2    0    2.00
    2    1    6.00
    3    0    2.00
    3    1    6.00
    3    2   10.00
    4    0    2.00
    4    1    1.00
#
# PSEUDOPOTENTIAL AND OPTIMIZATION
# lmax
    2
#
#   l,   rc,     ep,   ncon, nbas, qcut
    0   2.33023  -0.32886    5    8   4.71712
    1   2.44411  -0.09478    5    8   4.59134
    2   1.97184  -0.70391    5    8   7.53761
#
# LOCAL POTENTIAL
# lloc, lpopt,  rc(5),   dvloc0
    4    5   1.87996      0.00000
#
# VANDERBILT-KLEINMAN-BYLANDER PROJECTORs
# l, nproj, debl
    0    2   1.31404
    1    2   1.17643
    2    2   0.79440
#
# MODEL CORE CHARGE
# icmod, fcfact
    0   0.00000
#
# LOG DERIVATIVE ANALYSIS
# epsh1, epsh2, depsh
   -5.00    3.00    0.02
#
# OUTPUT GRID
# rlmax, drl
    6.00    0.01
#
# TEST CONFIGURATIONS
# ncnf
    0
# nvcnf
#   n    l    f
    </PP_INPUTFILE>
  </PP_INFO>
  <!--                               -->
  <!-- END OF HUMAN READABLE SECTION -->
  <!--                               -->
    <PP_HEADER
       generated="Generated using ONCVPSP code by D. R. Hamann"
       author="Martin Schlipf and Francois Gygi"
       date="150105"
       comment=""
       element="Ga"
       pseudo_type="NC"
       relativistic="scalar"
       is_ultrasoft="F"
       is_paw="F"
       is_coulomb="F"
       has_so="F"
       has_wfc="F"
       has_gipaw="F"
       core_correction="F"
       functional="PBE"
       z_valence="   13.00"
       total_psenergy="  -6.55445967449E+01"
       rho_cutoff="   6.01000000000E+00"
       l_max="2"
       l_local="-1"
       mesh_size="   602"
       number_of_wfc="0"
       number_of_proj="6"/>
 <PP_MESH>
   <PP_R type="real"  size=" 602" columns="8">
    0.0000    0.0100    0.0200    0.0300    0.0400    0.0500    0.0600    0.0700
    0.0800    0.0900    0.1000    0.1100    0.1200    0.1300    0.1400    0.1500
    0.1600    0.1700    0.1800    0.1900    0.2000    0.2100    0.2200    0.2300
    0.2400    0.2500    0.2600    0.2700    0.2800    0.2900    0.3000    0.3100
    0.3200    0.3300    0.3400    0.3500    0.3600    0.3700    0.3800    0.3900
    0.4000    0.4100    0.4200    0.4300    0.4400    0.4500    0.4600    0.4700
    0.4800    0.4900    0.5000    0.5100    0.5200    0.5300    0.5400    0.5500
    0.5600    0.5700    0.5800    0.5900    0.6000    0.6100    0.6200    0.6300
    0.6400    0.6500    0.6600    0.6700    0.6800    0.6900    0.7000    0.7100
    0.7200    0.7300    0.7400    0.7500    0.7600    0.7700    0.7800    0.7900
    0.8000    0.8100    0.8200    0.8300    0.8400    0.8500    0.8600    0.8700
    0.8800    0.8900    0.9000    0.9100    0.9200    0.9300    0.9400    0.9500
    0.9600    0.9700    0.9800    0.9900    1.0000    1.0100    1.0200    1.0300
    1.0400    1.0500    1.0600    1.0700    1.0800    1.0900    1.1000    1.1100
    1.1200    1.1300    1.1400    1.1500    1.1600    1.1700    1.1800    1.1900
    1.2000    1.2100    1.2200    1.2300    1.2400    1.2500    1.2600    1.2700
    1.2800    1.2900    1.3000    1.3100    1.3200    1.3300    1.3400    1.3500
    1.3600    1.3700    1.3800    1.3900    1.4000    1.4100    1.4200    1.4300
    1.4400    1.4500    1.4600    1.4700    1.4800    1.4900    1.5000    1.5100
    1.5200    1.5300    1.5400    1.5500    1.5600    1.5700    1.5800    1.5900
    1.6000    1.6100    1.6200    1.6300    1.6400    1.6500    1.6600    1.6700
    1.6800    1.6900    1.7000    1.7100    1.7200    1.7300    1.7400    1.7500
    1.7600    1.7700    1.7800    1.7900    1.8000    1.8100    1.8200    1.8300
    1.8400    1.8500    1.8600    1.8700    1.8800    1.8900    1.9000    1.9100
    1.9200    1.9300    1.9400    1.9500    1.9600    1.9700    1.9800    1.9900
    2.0000    2.0100    2.0200    2.0300    2.0400    2.0500    2.0600    2.0700
    2.0800    2.0900    2.1000    2.1100    2.1200    2.1300    2.1400    2.1500
    2.1600    2.1700    2.1800    2.1900    2.2000    2.2100    2.2200    2.2300
    2.2400    2.2500    2.2600    2.2700    2.2800    2.2900    2.3000    2.3100
    2.3200    2.3300    2.3400    2.3500    2.3600    2.3700    2.3800    2.3900
    2.4000    2.4100    2.4200    2.4300    2.4400    2.4500    2.4600    2.4700
    2.4800    2.4900    2.5000    2.5100    2.5200    2.5300    2.5400    2.5500
    2.5600    2.5700    2.5800    2.5900    2.6000    2.6100    2.6200    2.6300
    2.6400    2.6500    2.6600    2.6700    2.6800    2.6900    2.7000    2.7100
    2.7200    2.7300    2.7400    2.7500    2.7600    2.7700    2.7800    2.7900
    2.8000    2.8100    2.8200    2.8300    2.8400    2.8500    2.8600    2.8700
    2.8800    2.8900    2.9000    2.9100    2.9200    2.9300    2.9400    2.9500
    2.9600    2.9700    2.9800    2.9900    3.0000    3.0100    3.0200    3.0300
    3.0400    3.0500    3.0600    3.0700    3.0800    3.0900    3.1000    3.1100
    3.1200    3.1300    3.1400    3.1500    3.1600    3.1700    3.1800    3.1900
    3.2000    3.2100    3.2200    3.2300    3.2400    3.2500    3.2600    3.2700
    3.2800    3.2900    3.3000    3.3100    3.3200    3.3300    3.3400    3.3500
    3.3600    3.3700    3.3800    3.3900    3.4000    3.4100    3.4200    3.4300
    3.4400    3.4500    3.4600    3.4700    3.4800    3.4900    3.5000    3.5100
    3.5200    3.5300    3.5400    3.5500    3.5600    3.5700    3.5800    3.5900
    3.6000    3.6100    3.6200    3.6300    3.6400    3.6500    3.6600    3.6700
    3.6800    3.6900    3.7000    3.7100    3.7200    3.7300    3.7400    3.7500
    3.7600    3.7700    3.7800    3.7900    3.8000    3.8100    3.8200    3.8300
    3.8400    3.8500    3.8600    3.8700    3.8800    3.8900    3.9000    3.9100
    3.9200    3.9300    3.9400    3.9500    3.9600    3.9700    3.9800    3.9900
    4.0000    4.0100    4.0200    4.0300    4.0400    4.0500    4.0600    4.0700
    4.0800    4.0900    4.1000    4.1100    4.1200    4.1300    4.1400    4.1500
    4.1600    4.1700    4.1800    4.1900    4.2000    4.2100    4.2200    4.2300
    4.2400    4.2500    4.2600    4.2700    4.2800    4.2900    4.3000    4.3100
    4.3200    4.3300    4.3400    4.3500    4.3600    4.3700    4.3800    4.3900
    4.4000    4.4100    4.4200    4.4300    4.4400    4.4500    4.4600    4.4700
    4.4800    4.4900    4.5000    4.5100    4.5200    4.5300    4.5400    4.5500
    4.5600    4.5700    4.5800    4.5900    4.6000    4.6100    4.6200    4.6300
    4.6400    4.6500    4.6600    4.6700    4.6800    4.6900    4.7000    4.7100
    4.7200    4.7300    4.7400    4.7500    4.7600    4.7700    4.7800    4.7900
    4.8000    4.8100    4.8200    4.8300    4.8400    4.8500    4.8600    4.8700
    4.8800    4.8900    4.9000    4.9100    4.9200    4.9300    4.9400    4.9500
    4.9600    4.9700    4.9800    4.9900    5.0000    5.0100    5.0200    5.0300
    5.0400    5.0500    5.0600    5.0700    5.0800    5.0900    5.1000    5.1100
    5.1200    5.1300    5.1400    5.1500    5.1600    5.1700    5.1800    5.1900
    5.2000    5.2100    5.2200    5.2300    5.2400    5.2500    5.2600    5.2700
    5.2800    5.2900    5.3000    5.3100    5.3200    5.3300    5.3400    5.3500
    5.3600    5.3700    5.3800    5.3900    5.4000    5.4100    5.4200    5.4300
    5.4400    5.4500    5.4600    5.4700    5.4800    5.4900    5.5000    5.5100
    5.5200    5.5300    5.5400    5.5500    5.5600    5.5700    5.5800    5.5900
    5.6000    5.6100    5.6200    5.6300    5.6400    5.6500    5.6600    5.6700
    5.6800    5.6900    5.7000    5.7100    5.7200    5.7300    5.7400    5.7500
    5.7600    5.7700    5.7800    5.7900    5.8000    5.8100    5.8200    5.8300
    5.8400    5.8500    5.8600    5.8700    5.8800    5.8900    5.9000    5.9100
    5.9200    5.9300    5.9400    5.9500    5.9600    5.9700    5.9800    5.9900
    6.0000    6.0100
   </PP_R>
   <PP_RAB type="real"  size=" 602" columns="8">
    0.0100    0.0100    0.0100    0.0100    0.0100    0.0100    0.0100    0.0100
    0.0100    0.0100    0.0100    0.0100    0.0100    0.0100    0.0100    0.0100
    0.0100    0.0100    0.0100    0.0100    0.0100    0.0100    0.0100    0.0100
    0.0100    0.0100    0.0100    0.0100    0.0100    0.0100    0.0100    0.0100
    0.0100    0.0100    0.0100    0.0100    0.0100    0.0100    0.0100    0.0100
    0.0100    0.0100    0.0100    0.0100    0.0100    0.0100    0.0100    0.0100
    0.0100    0.0100    0.0100    0.0100    0.0100    0.0100    0.0100    0.0100
    0.0100    0.0100    0.0100    0.0100    0.0100    0.0100    0.0100    0.0100
    0.0100    0.0100    0.0100    0.0100    0.0100    0.0100    0.0100    0.0100
    0.0100    0.0100    0.0100    0.0100    0.0100    0.0100    0.0100    0.0100
    0.0100    0.0100    0.0100    0.0100    0.0100    0.0100    0.0100    0.0100
    0.0100    0.0100    0.0100    0.0100    0.0100    0.0100    0.0100    0.0100
    0.0100    0.0100    0.0100    0.0100    0.0100    0.0100    0.0100    0.0100
    0.0100    0.0100    0.0100    0.0100    0.0100    0.0100    0.0100    0.0100
    0.0100    0.0100    0.0100    0.0100    0.0100    0.0100    0.0100    0.0100
    0.0100    0.0100    0.0100    0.0100    0.0100    0.0100    0.0100    0.0100
    0.0100    0.0100    0.0100    0.0100    0.0100    0.0100    0.0100    0.0100
    0.0100    0.0100    0.0100    0.0100    0.0100    0.0100    0.0100    0.0100
    0.0100    0.0100    0.0100    0.0100    0.0100    0.0100    0.0100    0.0100
    0.0100    0.0100    0.0100    0.0100    0.0100    0.0100    0.0100    0.0100
    0.0100    0.0100    0.0100    0.0100    0.0100    0.0100    0.0100    0.0100
    0.0100    0.0100    0.0100    0.0100    0.0100    0.0100    0.0100    0.0100
    0.0100    0.0100    0.0100    0.0100    0.0100    0.0100    0.0100    0.0100
    0.0100    0.0100    0.0100    0.0100    0.0100    0.0100    0.0100    0.0100
    0.0100    0.0100    0.0100    0.0100    0.0100    0.0100    0.0100    0.0100
    0.0100    0.0100    0.0100    0.0100    0.0100    0.0100    0.0100    0.0100
    0.0100    0.0100    0.0100    0.0100    0.0100    0.0100    0.0100    0.0100
    0.0100    0.0100    0.0100    0.0100    0.0100    0.0100    0.0100    0.0100
    0.0100    0.0100    0.0100    0.0100    0.0100    0.0100    0.0100    0.0100
    0.0100    0.0100    0.0100    0.0100    0.0100    0.0100    0.0100    0.0100
    0.0100    0.0100    0.0100    0.0100    0.0100    0.0100    0.0100    0.0100
    0.0100    0.0100    0.0100    0.0100    0.0100    0.0100    0.0100    0.0100
    0.0100    0.0100    0.0100    0.0100    0.0100    0.0100    0.0100    0.0100
    0.0100    0.0100    0.0100    0.0100    0.0100    0.0100    0.0100    0.0100
    0.0100    0.0100    0.0100    0.0100    0.0100    0.0100    0.0100    0.0100
    0.0100    0.0100    0.0100    0.0100    0.0100    0.0100    0.0100    0.0100
    0.0100    0.0100    0.0100    0.0100    0.0100    0.0100    0.0100    0.0100
    0.0100    0.0100    0.0100    0.0100    0.0100    0.0100    0.0100    0.0100
    0.0100    0.0100    0.0100    0.0100    0.0100    0.0100    0.0100    0.0100
    0.0100    0.0100    0.0100    0.0100    0.0100    0.0100    0.0100    0.0100
    0.0100    0.0100    0.0100    0.0100    0.0100    0.0100    0.0100    0.0100
    0.0100    0.0100    0.0100    0.0100    0.0100    0.0100    0.0100    0.0100
    0.0100    0.0100    0.0100    0.0100    0.0100    0.0100    0.0100    0.0100
    0.0100    0.0100    0.0100    0.0100    0.0100    0.0100    0.0100    0.0100
    0.0100    0.0100    0.0100    0.0100    0.0100    0.0100    0.0100    0.0100
    0.0100    0.0100    0.0100    0.0100    0.0100    0.0100    0.0100    0.0100
    0.0100    0.0100    0.0100    0.0100    0.0100    0.0100    0.0100    0.0100
    0.0100    0.0100    0.0100    0.0100    0.0100    0.0100    0.0100    0.0100
    0.0100    0.0100    0.0100    0.0100    0.0100    0.0100    0.0100    0.0100
    0.0100    0.0100    0.0100    0.0100    0.0100    0.0100    0.0100    0.0100
    0.0100    0.0100    0.0100    0.0100    0.0100    0.0100    0.0100    0.0100
    0.0100    0.0100    0.0100    0.0100    0.0100    0.0100    0.0100    0.0100
    0.0100    0.0100    0.0100    0.0100    0.0100    0.0100    0.0100    0.0100
    0.0100    0.0100    0.0100    0.0100    0.0100    0.0100    0.0100    0.0100
    0.0100    0.0100    0.0100    0.0100    0.0100    0.0100    0.0100    0.0100
    0.0100    0.0100    0.0100    0.0100    0.0100    0.0100    0.0100    0.0100
    0.0100    0.0100    0.0100    0.0100    0.0100    0.0100    0.0100    0.0100
    0.0100    0.0100    0.0100    0.0100    0.0100    0.0100    0.0100    0.0100
    0.0100    0.0100    0.0100    0.0100    0.0100    0.0100    0.0100    0.0100
    0.0100    0.0100    0.0100    0.0100    0.0100    0.0100    0.0100    0.0100
    0.0100    0.0100    0.0100    0.0100    0.0100    0.0100    0.0100    0.0100
    0.0100    0.0100    0.0100    0.0100    0.0100    0.0100    0.0100    0.0100
    0.0100    0.0100    0.0100    0.0100    0.0100    0.0100    0.0100    0.0100
    0.0100    0.0100    0.0100    0.0100    0.0100    0.0100    0.0100    0.0100
    0.0100    0.0100    0.0100    0.0100    0.0100    0.0100    0.0100    0.0100
    0.0100    0.0100    0.0100    0.0100    0.0100    0.0100    0.0100    0.0100
    0.0100    0.0100    0.0100    0.0100    0.0100    0.0100    0.0100    0.0100
    0.0100    0.0100    0.0100    0.0100    0.0100    0.0100    0.0100    0.0100
    0.0100    0.0100    0.0100    0.0100    0.0100    0.0100    0.0100    0.0100
    0.0100    0.0100    0.0100    0.0100    0.0100    0.0100    0.0100    0.0100
    0.0100    0.0100    0.0100    0.0100    0.0100    0.0100    0.0100    0.0100
    0.0100    0.0100    0.0100    0.0100    0.0100    0.0100    0.0100    0.0100
    0.0100    0.0100    0.0100    0.0100    0.0100    0.0100    0.0100    0.0100
    0.0100    0.0100    0.0100    0.0100    0.0100    0.0100    0.0100    0.0100
    0.0100    0.0100    0.0100    0.0100    0.0100    0.0100    0.0100    0.0100
    0.0100    0.0100
   </PP_RAB>
 </PP_MESH>
  <PP_LOCAL type="real"  size=" 602" columns="4">
   -3.2477219633E+01   -3.2479608067E+01   -3.2452943936E+01   -3.2406856601E+01
   -3.2350975422E+01   -3.2288731073E+01   -3.2221533572E+01   -3.2150225772E+01
   -3.2075464882E+01   -3.1997860701E+01   -3.1918046304E+01   -3.1836725081E+01
   -3.1754706824E+01   -3.1672936032E+01   -3.1592511625E+01   -3.1514695123E+01
   -3.1440902786E+01   -3.1372676470E+01   -3.1311627762E+01   -3.1259351243E+01
   -3.1217305420E+01   -3.1186664385E+01   -3.1168149697E+01   -3.1161859497E+01
   -3.1167118315E+01   -3.1182375567E+01   -3.1205182280E+01   -3.1232264517E+01
   -3.1259704224E+01   -3.1283216481E+01   -3.1298494238E+01   -3.1301577087E+01
   -3.1289193759E+01   -3.1259033299E+01   -3.1209902134E+01   -3.1141764956E+01
   -3.1055652829E+01   -3.0953481360E+01   -3.0837789314E+01   -3.0711455799E+01
   -3.0577425471E+01   -3.0438476663E+01   -3.0297055439E+01   -3.0155181213E+01
   -3.0014418813E+01   -2.9875902317E+01   -2.9740392130E+01   -2.9608347600E+01
   -2.9479999551E+01   -2.9355418581E+01   -2.9234569067E+01   -2.9117350557E+01
   -2.9003626655E+01   -2.8893244342E+01   -2.8786043482E+01   -2.8681859812E+01
   -2.8580522680E+01   -2.8481847489E+01   -2.8385626918E+01   -2.8291616789E+01
   -2.8199525488E+01   -2.8108999622E+01   -2.8019615093E+01   -2.7930874272E+01
   -2.7842202974E+01   -2.7752964960E+01   -2.7662479603E+01   -2.7570049398E+01
   -2.7474996751E+01   -2.7376702240E+01   -2.7274640742E+01   -2.7168420706E+01
   -2.7057802784E+01   -2.6942710617E+01   -2.6823227669E+01   -2.6699581053E+01
   -2.6572114930E+01   -2.6441260036E+01   -2.6307497647E+01   -2.6171327836E+01
   -2.6033242613E+01   -2.5893705021E+01   -2.5753134972E+01   -2.5611901355E+01
   -2.5470319424E+01   -2.5328652189E+01   -2.5187114535E+01   -2.5045878911E+01
   -2.4905081700E+01   -2.4764829570E+01   -2.4625205381E+01   -2.4486273382E+01
   -2.4348083571E+01   -2.4210675223E+01   -2.4074079704E+01   -2.3938322104E+01
   -2.3803423044E+01   -2.3669399345E+01   -2.3536264433E+01   -2.3404028417E+01
   -2.3272697908E+01   -2.3142275804E+01   -2.3012760571E+01   -2.2884145515E+01
   -2.2756418508E+01   -2.2629561333E+01   -2.2503549339E+01   -2.2378351325E+01
   -2.2253927863E+01   -2.2130232900E+01   -2.2007213597E+01   -2.1884811210E+01
   -2.1762960431E+01   -2.1641591688E+01   -2.1520632620E+01   -2.1400009013E+01
   -2.1279646579E+01   -2.1159473824E+01   -2.1039423159E+01   -2.0919431462E+01
   -2.0799446457E+01   -2.0679424631E+01   -2.0559330568E+01   -2.0439145247E+01
   -2.0318862016E+01   -2.0198483935E+01   -2.0078031260E+01   -1.9957537507E+01
   -1.9837044309E+01   -1.9716608770E+01   -1.9596297391E+01   -1.9476181996E+01
   -1.9356345558E+01   -1.9236873729E+01   -1.9117855529E+01   -1.8999382242E+01
   -1.8881543196E+01   -1.8764427065E+01   -1.8648113461E+01   -1.8532680928E+01
   -1.8418192606E+01   -1.8304701798E+01   -1.8192253738E+01   -1.8080865357E+01
   -1.7970554271E+01   -1.7861302120E+01   -1.7753084592E+01   -1.7645856127E+01
   -1.7539551081E+01   -1.7434099564E+01   -1.7329410089E+01   -1.7225393996E+01
   -1.7121956565E+01   -1.7019008687E+01   -1.6916468499E+01   -1.6814270991E+01
   -1.6712359045E+01   -1.6610709807E+01   -1.6509299249E+01   -1.6408151471E+01
   -1.6307278638E+01   -1.6206743184E+01   -1.6106590880E+01   -1.6006905214E+01
   -1.5907757988E+01   -1.5809235974E+01   -1.5711422880E+01   -1.5614397586E+01
   -1.5518242191E+01   -1.5423019861E+01   -1.5328801913E+01   -1.5235631760E+01
   -1.5143565181E+01   -1.5052625141E+01   -1.4962850500E+01   -1.4874245671E+01
   -1.4786832902E+01   -1.4700602461E+01   -1.4615559288E+01   -1.4531685436E+01
   -1.4448970690E+01   -1.4367391617E+01   -1.4286926539E+01   -1.4207548407E+01
   -1.4129228060E+01   -1.4051935953E+01   -1.3975639350E+01   -1.3900306771E+01
   -1.3825905606E+01   -1.3752402269E+01   -1.3679767883E+01   -1.3607969793E+01
   -1.3536982438E+01   -1.3466778672E+01   -1.3397334639E+01   -1.3328631204E+01
   -1.3260645617E+01   -1.3193366144E+01   -1.3126774940E+01   -1.3060861699E+01
   -1.2995615167E+01   -1.2931024258E+01   -1.2867079064E+01   -1.2803769023E+01
   -1.2741084111E+01   -1.2679013630E+01   -1.2617548118E+01   -1.2556678451E+01
   -1.2496395090E+01   -1.2436689617E+01   -1.2377552853E+01   -1.2318976569E+01
   -1.2260952583E+01   -1.2203472437E+01   -1.2146528767E+01   -1.2090113516E+01
   -1.2034219355E+01   -1.1978839133E+01   -1.1923965244E+01   -1.1869591190E+01
   -1.1815709902E+01   -1.1762314655E+01   -1.1709399162E+01   -1.1656956631E+01
   -1.1604981054E+01   -1.1553466258E+01   -1.1502405916E+01   -1.1451794383E+01
   -1.1401625627E+01   -1.1351893847E+01   -1.1302593534E+01   -1.1253718834E+01
   -1.1205264378E+01   -1.1157224812E+01   -1.1109594392E+01   -1.1062368269E+01
   -1.1015541242E+01   -1.0969108007E+01   -1.0923063970E+01   -1.0877404179E+01
   -1.0832123762E+01   -1.0787218192E+01   -1.0742682635E+01   -1.0698512513E+01
   -1.0654703530E+01   -1.0611251072E+01   -1.0568150851E+01   -1.0525398737E+01
   -1.0482990289E+01   -1.0440921485E+01   -1.0399188395E+01   -1.0357786800E+01
   -1.0316712891E+01   -1.0275962909E+01   -1.0235532833E+01   -1.0195419028E+01
   -1.0155617908E+01   -1.0116125637E+01   -1.0076938727E+01   -1.0038053775E+01
   -9.9994671429E+00   -9.9611754564E+00   -9.9231754905E+00   -9.8854637975E+00
   -9.8480370909E+00   -9.8108923242E+00   -9.7740262432E+00   -9.7374356226E+00
   -9.7011175930E+00   -9.6650690938E+00   -9.6292869392E+00   -9.5937684330E+00
   -9.5585106831E+00   -9.5235106036E+00   -9.4887655875E+00   -9.4542729026E+00
   -9.4200296522E+00   -9.3860332094E+00   -9.3522810284E+00   -9.3187704074E+00
   -9.2854986782E+00   -9.2524634774E+00   -9.2196622958E+00   -9.1870924280E+00
   -9.1547516673E+00   -9.1226376257E+00   -9.0907477873E+00   -9.0590798596E+00
   -9.0276316459E+00   -8.9964008289E+00   -8.9653850135E+00   -8.9345821857E+00
   -8.9039901684E+00   -8.8736066472E+00   -8.8434295906E+00   -8.8134569828E+00
   -8.7836867089E+00   -8.7541165959E+00   -8.7247448152E+00   -8.6955693864E+00
   -8.6665882074E+00   -8.6377994079E+00   -8.6092011679E+00   -8.5807915885E+00
   -8.5525686262E+00   -8.5245306470E+00   -8.4966758491E+00   -8.4690023549E+00
   -8.4415083666E+00   -8.4141922717E+00   -8.3870523521E+00   -8.3600867608E+00
   -8.3332939180E+00   -8.3066722326E+00   -8.2802200638E+00   -8.2539356125E+00
   -8.2278174783E+00   -8.2018640984E+00   -8.1760738677E+00   -8.1504451570E+00
   -8.1249766013E+00   -8.0996667101E+00   -8.0745139207E+00   -8.0495167499E+00
   -8.0246738703E+00   -7.9999838604E+00   -7.9754452061E+00   -7.9510565460E+00
   -7.9268165944E+00   -7.9027239958E+00   -7.8787772896E+00   -7.8549752132E+00
   -7.8313165275E+00   -7.8077999397E+00   -7.7844240475E+00   -7.7611876656E+00
   -7.7380896059E+00   -7.7151286357E+00   -7.6923034151E+00   -7.6696128155E+00
   -7.6470557050E+00   -7.6246309080E+00   -7.6023371509E+00   -7.5801733428E+00
   -7.5581384123E+00   -7.5362312386E+00   -7.5144506179E+00   -7.4927954793E+00
   -7.4712648161E+00   -7.4498575594E+00   -7.4285725796E+00   -7.4074088086E+00
   -7.3863653081E+00   -7.3654410588E+00   -7.3446350089E+00   -7.3239460783E+00
   -7.3033733993E+00   -7.2829160001E+00   -7.2625729089E+00   -7.2423430252E+00
   -7.2222255483E+00   -7.2022195531E+00   -7.1823241133E+00   -7.1625382114E+00
   -7.1428609996E+00   -7.1232916355E+00   -7.1038292356E+00   -7.0844728714E+00
   -7.0652216341E+00   -7.0460747649E+00   -7.0270314216E+00   -7.0080907616E+00
   -6.9892518269E+00   -6.9705139201E+00   -6.9518762450E+00   -6.9333379983E+00
   -6.9148983161E+00   -6.8965564111E+00   -6.8783115800E+00   -6.8601630569E+00
   -6.8421100761E+00   -6.8241517568E+00   -6.8062874807E+00   -6.7885165195E+00
   -6.7708381430E+00   -6.7532515705E+00   -6.7357560689E+00   -6.7183510091E+00
   -6.7010356950E+00   -6.6838094303E+00   -6.6666714272E+00   -6.6496210847E+00
   -6.6326577612E+00   -6.6157807928E+00   -6.5989894997E+00   -6.5822831436E+00
   -6.5656611858E+00   -6.5491229936E+00   -6.5326679339E+00   -6.5162953282E+00
   -6.5000045369E+00   -6.4837950207E+00   -6.4676661760E+00   -6.4516173994E+00
   -6.4356480203E+00   -6.4197574798E+00   -6.4039452426E+00   -6.3882107332E+00
   -6.3725533763E+00   -6.3569725149E+00   -6.3414676539E+00   -6.3260382670E+00
   -6.3106838055E+00   -6.2954037209E+00   -6.2801973754E+00   -6.2650643209E+00
   -6.2500040456E+00   -6.2350160265E+00   -6.2200997406E+00   -6.2052545737E+00
   -6.1904801098E+00   -6.1757758569E+00   -6.1611413162E+00   -6.1465759893E+00
   -6.1320792897E+00   -6.1176508194E+00   -6.1032901110E+00   -6.0889966891E+00
   -6.0747700784E+00   -6.0606097245E+00   -6.0465152338E+00   -6.0324861685E+00
   -6.0185220751E+00   -6.0046225006E+00   -5.9907869266E+00   -5.9770149515E+00
   -5.9633061710E+00   -5.9496601529E+00   -5.9360764652E+00   -5.9225546298E+00
   -5.9090942250E+00   -5.8956948841E+00   -5.8823561949E+00   -5.8690777454E+00
   -5.8558591021E+00   -5.8426998124E+00   -5.8295995499E+00   -5.8165579217E+00
   -5.8035745352E+00   -5.7906489975E+00   -5.7777808377E+00   -5.7649697501E+00
   -5.7522153677E+00   -5.7395173158E+00   -5.7268752199E+00   -5.7142886609E+00
   -5.7017572777E+00   -5.6892807534E+00   -5.6768587308E+00   -5.6644908529E+00
   -5.6521767566E+00   -5.6399160167E+00   -5.6277083680E+00   -5.6155534698E+00
   -5.6034509819E+00   -5.5914005638E+00   -5.5794018302E+00   -5.5674544580E+00
   -5.5555581587E+00   -5.5437126077E+00   -5.5319174804E+00   -5.5201724522E+00
   -5.5084771237E+00   -5.4968312572E+00   -5.4852345456E+00   -5.4736866795E+00
   -5.4621873494E+00   -5.4507362215E+00   -5.4393329627E+00   -5.4279773304E+00
   -5.4166690296E+00   -5.4054077651E+00   -5.3941932419E+00   -5.3830251203E+00
   -5.3719031275E+00   -5.3608270127E+00   -5.3497964946E+00   -5.3388112918E+00
   -5.3278711233E+00   -5.3169756487E+00   -5.3061246419E+00   -5.2953178488E+00
   -5.2845550012E+00   -5.2738358310E+00   -5.2631600701E+00   -5.2525273831E+00
   -5.2419375770E+00   -5.2313903996E+00   -5.2208855954E+00   -5.2104229086E+00
   -5.2000020821E+00   -5.1896227945E+00   -5.1792848693E+00   -5.1689880625E+00
   -5.1587321306E+00   -5.1485168297E+00   -5.1383419146E+00   -5.1282070775E+00
   -5.1181121514E+00   -5.1080569039E+00   -5.0980411028E+00   -5.0880645156E+00
   -5.0781269098E+00   -5.0682279906E+00   -5.0583675947E+00   -5.0485455039E+00
   -5.0387614967E+00   -5.0290153514E+00   -5.0193068466E+00   -5.0096357085E+00
   -5.0000017629E+00   -4.9904048113E+00   -4.9808446426E+00   -4.9713210455E+00
   -4.9618338087E+00   -4.9523826836E+00   -4.9429674754E+00   -4.9335880092E+00
   -4.9242440836E+00   -4.9149354970E+00   -4.9056620483E+00   -4.8964235174E+00
   -4.8872196804E+00   -4.8780503887E+00   -4.8689154505E+00   -4.8598146736E+00
   -4.8507478661E+00   -4.8417148360E+00   -4.8327153356E+00   -4.8237492319E+00
   -4.8148163466E+00   -4.8059164964E+00   -4.7970494984E+00   -4.7882151694E+00
   -4.7794132978E+00   -4.7706437021E+00   -4.7619062387E+00   -4.7532007329E+00
   -4.7445270103E+00   -4.7358848963E+00   -4.7272742164E+00   -4.7186947411E+00
   -4.7101463560E+00   -4.7016288969E+00   -4.6931421976E+00   -4.6846860916E+00
   -4.6762604126E+00   -4.6678649736E+00   -4.6594995951E+00   -4.6511641546E+00
   -4.6428584934E+00   -4.6345824529E+00   -4.6263358744E+00   -4.6181185992E+00
   -4.6099304314E+00   -4.6017712366E+00   -4.5936408813E+00   -4.5855392144E+00
   -4.5774660845E+00   -4.5694213405E+00   -4.5614048309E+00   -4.5534163556E+00
   -4.5454558141E+00   -4.5375230667E+00   -4.5296179691E+00   -4.5217403771E+00
   -4.5138901466E+00   -4.5060671291E+00   -4.4982711370E+00   -4.4905020807E+00
   -4.4827598227E+00   -4.4750442255E+00   -4.4673551516E+00   -4.4596924636E+00
   -4.4520560159E+00   -4.4444456368E+00   -4.4368612381E+00   -4.4293026890E+00
   -4.4217698582E+00   -4.4142626147E+00   -4.4067808274E+00   -4.3993243576E+00
   -4.3918930403E+00   -4.3844867926E+00   -4.3771054898E+00   -4.3697490067E+00
   -4.3624172184E+00   -4.3551099999E+00   -4.3478272235E+00   -4.3405687214E+00
   -4.3333344201E+00   -4.3261242006E+00
  </PP_LOCAL>
 <PP_NONLOCAL>
   <PP_BETA.1
       type="real"
       size=" 602"
       columns="4"
       index="1"
       angular_momentum="0"
       cutoff_radius_index=" 248"
       cutoff_radius="    2.4700000000E+00" >
    0.0000000000E+00   -2.6117559088E-02   -5.2229897149E-02   -7.8331760366E-02
   -1.0441782948E-01   -1.3048268740E-01   -1.5652078728E-01   -1.8252642110E-01
   -2.0849368894E-01   -2.3441646915E-01   -2.6028838935E-01   -2.8610279865E-01
   -3.1185274098E-01   -3.3753092979E-01   -3.6312972420E-01   -3.8864110666E-01
   -4.1405666240E-01   -4.3936756045E-01   -4.6456453675E-01   -4.8963787902E-01
   -5.1457741384E-01   -5.3937249570E-01   -5.6401199834E-01   -5.8848430833E-01
   -6.1277732094E-01   -6.3687843836E-01   -6.6077457045E-01   -6.8445213770E-01
   -7.0789707690E-01   -7.3109484915E-01   -7.5403045043E-01   -7.7668842460E-01
   -7.9905287897E-01   -8.2110750237E-01   -8.4283558547E-01   -8.6422004390E-01
   -8.8524344317E-01   -9.0588802679E-01   -9.2613574572E-01   -9.4596829033E-01
   -9.6536712525E-01   -9.8431352521E-01   -1.0027886133E+00   -1.0207734011E+00
   -1.0382488307E+00   -1.0551958180E+00   -1.0715952980E+00   -1.0874282702E+00
   -1.1026758488E+00   -1.1173193098E+00   -1.1313401407E+00   -1.1447200892E+00
   -1.1574412224E+00   -1.1694859694E+00   -1.1808371769E+00   -1.1914781681E+00
   -1.2013927794E+00   -1.2105654370E+00   -1.2189811789E+00   -1.2266257393E+00
   -1.2334855691E+00   -1.2395479088E+00   -1.2448008302E+00   -1.2492332682E+00
   -1.2528351049E+00   -1.2555971817E+00   -1.2575113427E+00   -1.2585705069E+00
   -1.2587686810E+00   -1.2581010025E+00   -1.2565637672E+00   -1.2541544891E+00
   -1.2508719063E+00   -1.2467160137E+00   -1.2416880884E+00   -1.2357907117E+00
   -1.2290277833E+00   -1.2214045485E+00   -1.2129276021E+00   -1.2036048954E+00
   -1.1934457432E+00   -1.1824608262E+00   -1.1706621885E+00   -1.1580632324E+00
   -1.1446787090E+00   -1.1305247056E+00   -1.1156186289E+00   -1.0999791852E+00
   -1.0836263558E+00   -1.0665813702E+00   -1.0488666744E+00   -1.0305058962E+00
   -1.0115238074E+00   -9.9194628166E-01   -9.7180025264E-01   -9.5111366089E-01