<PP_INFO>
Generated using ld1 code (maybe, or maybe not)
Author: unknown    Generation date: as well
Info: automatically converted from PWSCF format
  0.00000000000E+00    Local Potential cutoff radius
nl pn  l   occ               Rcut            Rcut US             E pseu
3S  0  0  2.00      0.00000000000      0.00000000000      0.00000000000
3P  0  1  3.00      0.00000000000      0.00000000000      0.00000000000
</PP_INFO>


<PP_HEADER>
   0                   Version Number
   P                   Element
   NC                  Norm - Conserving pseudopotential
    F                  Nonlinear Core Correction
 SLA  PZ   NOGX NOGC   PZ   Exchange-Correlation functional
    5.00000000000      Z valence
    0.00000000000      Total energy
  0.0000000  0.0000000 Suggested cutoff for wfc and rho
    1                  Max angular momentum component
  433                  Number of points in mesh
    2    2             Number of Wavefunctions, Number of Projectors
 Wavefunctions         nl  l   occ
                       3S  0  2.00
                       3P  1  3.00
</PP_HEADER>


<PP_MESH>
  <PP_R>
  1.22104259258E-03  1.25195343298E-03  1.28364678503E-03  1.31614245810E-03
  1.34946076305E-03  1.38362252491E-03  1.41864909589E-03  1.45456236874E-03
  1.49138479041E-03  1.52913937613E-03  1.56784972373E-03  1.60754002845E-03
  1.64823509802E-03  1.68996036818E-03  1.73274191858E-03  1.77660648909E-03
  1.82158149649E-03  1.86769505161E-03  1.91497597695E-03  1.96345382461E-03
  2.01315889482E-03  2.06412225488E-03  2.11637575854E-03  2.16995206594E-03
  2.22488466402E-03  2.28120788744E-03  2.33895694006E-03  2.39816791690E-03
  2.45887782675E-03  2.52112461529E-03  2.58494718878E-03  2.65038543841E-03
  2.71748026522E-03  2.78627360566E-03  2.85680845780E-03  2.92912890823E-03
  3.00328015957E-03  3.07930855878E-03  3.15726162608E-03  3.23718808467E-03
  3.31913789119E-03  3.40316226694E-03  3.48931372990E-03  3.57764612752E-03
  3.66821467043E-03  3.76107596692E-03  3.85628805832E-03  3.95391045530E-03
  4.05400417501E-03  4.15663177931E-03  4.26185741378E-03  4.36974684787E-03
  4.48036751598E-03  4.59378855964E-03  4.71008087070E-03  4.82931713562E-03
  4.95157188096E-03  5.07692151991E-03  5.20544440008E-03  5.33722085245E-03
  5.47233324159E-03  5.61086601715E-03  5.75290576662E-03  5.89854126947E-03
  6.04786355263E-03  6.20096594738E-03  6.35794414770E-03  6.51889627009E-03
  6.68392291485E-03  6.85312722902E-03  7.02661497079E-03  7.20449457566E-03
  7.38687722416E-03  7.57387691138E-03  7.76561051823E-03  7.96219788445E-03
  8.16376188353E-03  8.37042849955E-03  8.58232690585E-03  8.79958954586E-03
  9.02235221577E-03  9.25075414953E-03  9.48493810577E-03  9.72505045708E-03
  9.97124128151E-03  1.02236644563E-02  1.04824777542E-02  1.07478429420E-02
  1.10199258814E-02  1.12988966333E-02  1.15849295634E-02  1.18782034515E-02
  1.21789016035E-02  1.24872119655E-02  1.28033272414E-02  1.31274450136E-02
  1.34597678663E-02  1.38005035121E-02  1.41498649218E-02  1.45080704577E-02
  1.48753440099E-02  1.52519151363E-02  1.56380192063E-02  1.60338975472E-02
  1.64397975961E-02  1.68559730536E-02  1.72826840431E-02  1.77201972726E-02
  1.81687862023E-02  1.86287312148E-02  1.91003197907E-02  1.95838466882E-02
  2.00796141275E-02  2.05879319792E-02  2.11091179586E-02  2.16434978239E-02
  2.21914055799E-02  2.27531836867E-02  2.33291832741E-02  2.39197643604E-02
  2.45252960781E-02  2.51461569042E-02  2.57827348970E-02  2.64354279383E-02
  2.71046439827E-02  2.77908013119E-02  2.84943287966E-02  2.92156661643E-02
  2.99552642745E-02  3.07135853999E-02  3.14911035161E-02  3.22883045970E-02
  3.31056869194E-02  3.39437613738E-02  3.48030517841E-02  3.56840952346E-02
  3.65874424063E-02  3.75136579205E-02  3.84633206920E-02  3.94370242911E-02
  4.04353773142E-02  4.14590037643E-02  4.25085434415E-02  4.35846523420E-02
  4.46880030690E-02  4.58192852527E-02  4.69792059812E-02  4.81684902428E-02
  4.93878813788E-02  5.06381415483E-02  5.19200522048E-02  5.32344145840E-02
  5.45820502052E-02  5.59638013846E-02  5.73805317617E-02  5.88331268390E-02
  6.03224945357E-02  6.18495657552E-02  6.34152949667E-02  6.50206608019E-02
  6.66666666667E-02  6.83543413683E-02  7.00847397584E-02  7.18589433923E-02
  7.36780612050E-02  7.55432302045E-02  7.74556161819E-02  7.94164144408E-02
  8.14268505440E-02  8.34881810795E-02  8.56016944458E-02  8.77687116578E-02
  8.99905871717E-02  9.22687097321E-02  9.46045032396E-02  9.69994276412E-02
  9.94549798428E-02  1.01972694644E-01  1.04554145699E-01  1.07200946499E-01
  1.09914751380E-01  1.12697256559E-01  1.15550201191E-01  1.18475368461E-01
  1.21474586693E-01  1.24549730495E-01  1.27702721934E-01  1.30935531731E-01
  1.34250180498E-01  1.37648739998E-01  1.41133334441E-01  1.44706141812E-01
  1.48369395233E-01  1.52125384355E-01  1.55976456795E-01  1.59925019598E-01
  1.63973540744E-01  1.68124550691E-01  1.72380643954E-01  1.76744480732E-01
  1.81218788564E-01  1.85806364038E-01  1.90510074538E-01  1.95332860036E-01
  2.00277734930E-01  2.05347789928E-01  2.10546193979E-01  2.15876196256E-01
  2.21341128182E-01  2.26944405519E-01  2.32689530497E-01  2.38580094007E-01
  2.44619777841E-01  2.50812357000E-01  2.57161702046E-01  2.63671781528E-01
  2.70346664456E-01  2.77190522850E-01  2.84207634345E-01  2.91402384862E-01
  2.98779271356E-01  3.06342904620E-01  3.14098012173E-01  3.22049441207E-01
  3.30202161626E-01  3.38561269145E-01  3.47131988479E-01  3.55919676605E-01
  3.64929826115E-01  3.74168068646E-01  3.83640178400E-01  3.93352075755E-01
  4.03309830961E-01  4.13519667940E-01  4.23987968173E-01  4.34721274689E-01
  4.45726296152E-01  4.57009911060E-01  4.68579172039E-01  4.80441310255E-01
  4.92603739929E-01  5.05074062976E-01  5.17860073754E-01  5.30969763936E-01
  5.44411327505E-01  5.58193165875E-01  5.72323893145E-01  5.86812341479E-01
  6.01667566629E-01  6.16898853594E-01  6.32515722424E-01  6.48527934171E-01
  6.64945496988E-01  6.81778672386E-01  6.99037981649E-01  7.16734212405E-01
  7.34878425376E-01  7.53481961285E-01  7.72556447948E-01  7.92113807540E-01
  8.12166264047E-01  8.32726350907E-01  8.53806918844E-01  8.75421143899E-01
  8.97582535667E-01  9.20304945738E-01  9.43602576358E-01  9.67489989306E-01
  9.91982114992E-01  1.01709426179E+00  1.04284212561E+00  1.06924179971E+00
  1.09630978474E+00  1.12406299907E+00  1.15251878937E+00  1.18169494143E+00
  1.21160969130E+00  1.24228173666E+00  1.27373024855E+00  1.30597488331E+00
  1.33903579488E+00  1.37293364741E+00  1.40768962817E+00  1.44332546077E+00
  1.47986341876E+00  1.51732633957E+00  1.55573763873E+00  1.59512132456E+00
  1.63550201314E+00  1.67690494372E+00  1.71935599448E+00  1.76288169870E+00
  1.80750926138E+00  1.85326657618E+00  1.90018224292E+00  1.94828558542E+00
  1.99760666983E+00  2.04817632343E+00  2.10002615392E+00  2.15318856911E+00
  2.20769679725E+00  2.26358490775E+00  2.32088783251E+00  2.37964138771E+00
  2.43988229625E+00  2.50164821064E+00  2.56497773660E+00  2.62991045715E+00
  2.69648695734E+00  2.76474884966E+00  2.83473880000E+00  2.90650055438E+00
  2.98007896622E+00  3.05552002442E+00  3.13287088211E+00  3.21217988607E+00
  3.29349660704E+00  3.37687187059E+00  3.46235778899E+00  3.55000779372E+00
  3.63987666888E+00  3.73202058544E+00  3.82649713636E+00  3.92336537256E+00
  4.02268583982E+00  4.12452061669E+00  4.22893335321E+00  4.33598931073E+00
  4.44575540273E+00  4.55830023657E+00  4.67369415645E+00  4.79200928731E+00
  4.91331957997E+00  5.03770085732E+00  5.16523086168E+00  5.29598930348E+00
  5.43005791100E+00  5.56752048147E+00  5.70846293348E+00  5.85297336065E+00
  6.00114208670E+00  6.15306172191E+00  6.30882722099E+00  6.46853594246E+00
  6.63228770946E+00  6.80018487218E+00  6.97233237181E+00  7.14883780614E+00
  7.32981149681E+00  7.51536655827E+00  7.70561896848E+00  7.90068764138E+00
  8.10069450125E+00  8.30576455888E+00  8.51602598974E+00  8.73161021405E+00
  8.95265197900E+00  9.17928944286E+00  9.41166426143E+00  9.64992167655E+00
  9.89421060684E+00  1.01446837408E+01  1.04014976324E+01  1.06648127986E+01
  1.09347938200E+01  1.12116094435E+01  1.14954326878E+01  1.17864409518E+01
  1.20848161250E+01  1.23907447017E+01  1.27044178972E+01  1.30260317675E+01
  1.33557873317E+01  1.36938906977E+01  1.40405531911E+01  1.43959914874E+01
  1.47604277469E+01  1.51340897544E+01  1.55172110605E+01  1.59100311287E+01
  1.63127954843E+01  1.67257558681E+01  1.71491703937E+01  1.75833037091E+01
  1.80284271617E+01  1.84848189682E+01  1.89527643883E+01  1.94325559030E+01
  1.99244933978E+01  2.04288843496E+01  2.09460440190E+01  2.14762956479E+01
  2.20199706606E+01  2.25774088719E+01  2.31489586986E+01  2.37349773781E+01
  2.43358311910E+01  2.49518956907E+01  2.55835559374E+01  2.62312067394E+01
  2.68952528995E+01  2.75761094682E+01  2.82742020030E+01  2.89899668344E+01
  2.97238513388E+01  3.04763142179E+01  3.12478257855E+01  3.20388682614E+01
  3.28499360729E+01  3.36815361638E+01  3.45341883112E+01  3.54084254505E+01
  3.63047940084E+01  3.72238542443E+01  3.81661806009E+01  3.91323620628E+01
  4.01230025248E+01  4.11387211695E+01  4.21801528542E+01  4.32479485074E+01
  4.43427755363E+01  4.54653182434E+01  4.66162782544E+01  4.77963749568E+01
  4.90063459495E+01  5.02469475036E+01  5.15189550357E+01  5.28231635917E+01
  5.41603883445E+01  5.55314651031E+01  5.69372508351E+01  5.83786242023E+01
  5.98564861100E+01
  </PP_R>
  <PP_RAB>
  3.05260648146E-05  3.12988358245E-05  3.20911696256E-05  3.29035614525E-05
  3.37365190763E-05  3.45905631228E-05  3.54662273973E-05  3.63640592184E-05
  3.72846197603E-05  3.82284844032E-05  3.91962430933E-05  4.01885007114E-05
  4.12058774506E-05  4.22490092045E-05  4.33185479646E-05  4.44151622273E-05
  4.55395374122E-05  4.66923762904E-05  4.78743994237E-05  4.90863456152E-05
  5.03289723705E-05  5.16030563720E-05  5.29093939634E-05  5.42488016485E-05
  5.56221166005E-05  5.70301971861E-05  5.84739235014E-05  5.99541979224E-05
  6.14719456687E-05  6.30281153822E-05  6.46236797195E-05  6.62596359604E-05
  6.79370066306E-05  6.96568401415E-05  7.14202114451E-05  7.32282227057E-05
  7.50820039893E-05  7.69827139695E-05  7.89315406519E-05  8.09297021167E-05
  8.29784472798E-05  8.50790566736E-05  8.72328432474E-05  8.94411531879E-05
  9.17053667607E-05  9.40268991730E-05  9.64072014581E-05  9.88477613824E-05
  1.01350104375E-04  1.03915794483E-04  1.06546435345E-04  1.09243671197E-04
  1.12009187900E-04  1.14844713991E-04  1.17752021767E-04  1.20732928390E-04
  1.23789297024E-04  1.26923037998E-04  1.30136110002E-04  1.33430521311E-04
  1.36808331040E-04  1.40271650429E-04  1.43822644166E-04  1.47463531737E-04
  1.51196588816E-04  1.55024148684E-04  1.58948603693E-04  1.62972406752E-04
  1.67098072871E-04  1.71328180725E-04  1.75665374270E-04  1.80112364391E-04
  1.84671930604E-04  1.89346922785E-04  1.94140262956E-04  1.99054947111E-04
  2.04094047088E-04  2.09260712489E-04  2.14558172646E-04  2.19989738646E-04
  2.25558805394E-04  2.31268853738E-04  2.37123452644E-04  2.43126261427E-04
  2.49281032038E-04  2.55591611408E-04  2.62061943856E-04  2.68696073550E-04
  2.75498147036E-04  2.82472415832E-04  2.89623239084E-04  2.96955086288E-04
  3.04472540088E-04  3.12180299137E-04  3.20083181035E-04  3.28186125340E-04
  3.36494196658E-04  3.45012587802E-04  3.53746623045E-04  3.62701761442E-04
  3.71883600247E-04  3.81297878409E-04  3.90950480156E-04  4.00847438681E-04
  4.10994939903E-04  4.21399326341E-04  4.32067101076E-04  4.43004931815E-04
  4.54219655057E-04  4.65718280369E-04  4.77507994767E-04  4.89596167206E-04
  5.01990353187E-04  5.14698299480E-04  5.27727948965E-04  5.41087445597E-04
  5.54785139497E-04  5.68829592168E-04  5.83229581852E-04  5.97994109010E-04
  6.13132401952E-04  6.28653922605E-04  6.44568372424E-04  6.60885698458E-04
  6.77616099568E-04  6.94770032798E-04  7.12358219915E-04  7.30391654108E-04
  7.48881606862E-04  7.67839634998E-04  7.87277587902E-04  8.07207614926E-04
  8.27642172986E-04  8.48594034346E-04  8.70076294602E-04  8.92102380865E-04
  9.14686060157E-04  9.37841448012E-04  9.61583017301E-04  9.85925607278E-04
  1.01088443285E-03  1.03647509411E-03  1.06271358604E-03  1.08961630855E-03
  1.11720007673E-03  1.14548213132E-03  1.17448014953E-03  1.20421225607E-03
  1.23469703447E-03  1.26595353871E-03  1.29800130512E-03  1.33086036460E-03
  1.36455125513E-03  1.39909503462E-03  1.43451329404E-03  1.47082817097E-03
  1.50806236339E-03  1.54623914388E-03  1.58538237417E-03  1.62551652005E-03
  1.66666666667E-03  1.70885853421E-03  1.75211849396E-03  1.79647358481E-03
  1.84195153013E-03  1.88858075511E-03  1.93639040455E-03  1.98541036102E-03
  2.03567126360E-03  2.08720452699E-03  2.14004236115E-03  2.19421779145E-03
  2.24976467929E-03  2.30671774330E-03  2.36511258099E-03  2.42498569103E-03
  2.48637449607E-03  2.54931736611E-03  2.61385364248E-03  2.68002366248E-03
  2.74786878450E-03  2.81743141397E-03  2.88875502978E-03  2.96188421152E-03
  3.03686466732E-03  3.11374326239E-03  3.19256804836E-03  3.27338829328E-03
  3.35625451245E-03  3.44121849994E-03  3.52833336102E-03  3.61765354531E-03
  3.70923488082E-03  3.80313460888E-03  3.89941141988E-03  3.99812548995E-03
  4.09933851859E-03  4.20311376726E-03  4.30951609886E-03  4.41861201830E-03
  4.53046971410E-03  4.64515910094E-03  4.76275186344E-03  4.88332150089E-03
  5.00694337324E-03  5.13369474820E-03  5.26365484948E-03  5.39690490640E-03
  5.53352820456E-03  5.67361013798E-03  5.81723826244E-03  5.96450235017E-03
  6.11549444603E-03  6.27030892500E-03  6.42904255116E-03  6.59179453820E-03
  6.75866661141E-03  6.92976307126E-03  7.10519085861E-03  7.28505962155E-03
  7.46948178390E-03  7.65857261551E-03  7.85245030432E-03  8.05123603018E-03
  8.25505404066E-03  8.46403172863E-03  8.67829971197E-03  8.89799191512E-03
  9.12324565288E-03  9.35420171616E-03  9.59100446001E-03  9.83380189387E-03
  1.00827457740E-02  1.03379916985E-02  1.05996992043E-02  1.08680318672E-02
  1.11431574038E-02  1.14252477765E-02  1.17144793010E-02  1.20110327564E-02
  1.23150934982E-02  1.26268515744E-02  1.29465018438E-02  1.32742440984E-02
  1.36102831876E-02  1.39548291469E-02  1.43080973286E-02  1.46703085370E-02
  1.50416891657E-02  1.54224713398E-02  1.58128930606E-02  1.62131983543E-02
  1.66236374247E-02  1.70444668097E-02  1.74759495412E-02  1.79183553101E-02
  1.83719606344E-02  1.88370490321E-02  1.93139111987E-02  1.98028451885E-02
  2.03041566012E-02  2.08181587727E-02  2.13451729711E-02  2.18855285975E-02
  2.24395633917E-02  2.30076236434E-02  2.35900644090E-02  2.41872497327E-02
  2.47995528748E-02  2.54273565448E-02  2.60710531403E-02  2.67310449928E-02
  2.74077446185E-02  2.81015749768E-02  2.88129697343E-02  2.95423735358E-02
  3.02902422824E-02  3.10570434165E-02  3.18432562137E-02  3.26493720827E-02
  3.34758948720E-02  3.43233411853E-02  3.51922407042E-02  3.60831365192E-02
  3.69965854691E-02  3.79331584892E-02  3.88934409682E-02  3.98780331140E-02
  4.08875503285E-02  4.19226235930E-02  4.29838998620E-02  4.40720424676E-02
  4.51877315344E-02  4.63316644044E-02  4.75045560729E-02  4.87071396354E-02
  4.99401667457E-02  5.12044080858E-02  5.25006538479E-02  5.38297142277E-02
  5.51924199312E-02  5.65896226937E-02  5.80221958127E-02  5.94910346928E-02
  6.09970574061E-02  6.25412052660E-02  6.41244434151E-02  6.57477614287E-02
  6.74121739334E-02  6.91187212414E-02  7.08684700001E-02  7.26625138595E-02
  7.45019741555E-02  7.63880006106E-02  7.83217720526E-02  8.03044971518E-02
  8.23374151759E-02  8.44217967647E-02  8.65589447247E-02  8.87501948429E-02
  9.09969167219E-02  9.33005146361E-02  9.56624284091E-02  9.80841343139E-02
  1.00567145996E-01  1.03113015417E-01  1.05723333830E-01  1.08399732768E-01
  1.11143885068E-01  1.13957505914E-01  1.16842353911E-01  1.19800232183E-01
  1.22832989499E-01  1.25942521433E-01  1.29130771542E-01  1.32399732587E-01
  1.35751447775E-01  1.39188012037E-01  1.42711573337E-01  1.46324334016E-01
  1.50028552168E-01  1.53826543048E-01  1.57720680525E-01  1.61713398562E-01
  1.65807192737E-01  1.70004621804E-01  1.74308309295E-01  1.78720945153E-01
  1.83245287420E-01  1.87884163957E-01  1.92640474212E-01  1.97517191035E-01
  2.02517362531E-01  2.07644113972E-01  2.12900649743E-01  2.18290255351E-01
  2.23816299475E-01  2.29482236071E-01  2.35291606536E-01  2.41248041914E-01
  2.47355265171E-01  2.53617093521E-01  2.60037440811E-01  2.66620319966E-01
  2.73369845500E-01  2.80290236086E-01  2.87385817195E-01  2.94661023794E-01
  3.02120403125E-01  3.09768617543E-01  3.17610447431E-01  3.25650794188E-01
  3.33894683291E-01  3.42347267441E-01  3.51013829778E-01  3.59899787184E-01
  3.69010693674E-01  3.78352243859E-01  3.87930276513E-01  3.97750778218E-01
  4.07819887107E-01  4.18143896701E-01  4.28729259843E-01  4.39582592728E-01
  4.50710679044E-01  4.62120474205E-01  4.73819109707E-01  4.85813897576E-01
  4.98112334945E-01  5.10722108739E-01  5.23651100476E-01  5.36907391197E-01
  5.50499266516E-01  5.64435221797E-01  5.78723967465E-01  5.93374434451E-01
  6.08395779776E-01  6.23797392267E-01  6.39588898435E-01  6.55780168485E-01
  6.72381322488E-01  6.89402736705E-01  7.06855050075E-01  7.24749170861E-01
  7.43096283471E-01  7.61907855448E-01  7.81195644637E-01  8.00971706535E-01
  8.21248401822E-01  8.42038404095E-01  8.63354707781E-01  8.85210636263E-01
  9.07619850210E-01  9.30596356108E-01  9.54154515023E-01  9.78309051570E-01
  1.00307506312E+00  1.02846802924E+00  1.05450382135E+00  1.08119871268E+00
  1.10856938841E+00  1.13663295608E+00  1.16540695636E+00  1.19490937392E+00
  1.22515864874E+00  1.25617368759E+00  1.28797387589E+00  1.32057908979E+00
  1.35400970861E+00  1.38828662758E+00  1.42343127088E+00  1.45946560506E+00
  1.49641215275E+00
  </PP_RAB>
</PP_MESH>


<PP_LOCAL>
 -1.22691075603E+01 -1.22691086498E+01 -1.22691097953E+01 -1.22691109998E+01
 -1.22691122656E+01 -1.22691135962E+01 -1.22691149955E+01 -1.22691164659E+01
 -1.22691180124E+01 -1.22691196380E+01 -1.22691213465E+01 -1.22691231430E+01
 -1.22691250316E+01 -1.22691270167E+01 -1.22691291039E+01 -1.22691312982E+01
 -1.22691336048E+01 -1.22691360297E+01 -1.22691385789E+01 -1.22691412586E+01
 -1.22691440761E+01 -1.22691470377E+01 -1.22691501514E+01 -1.22691534244E+01
 -1.22691568654E+01 -1.22691604829E+01 -1.22691642859E+01 -1.22691682838E+01
 -1.22691724865E+01 -1.22691769052E+01 -1.22691815497E+01 -1.22691864327E+01
 -1.22691915665E+01 -1.22691969630E+01 -1.22692026357E+01 -1.22692086000E+01
 -1.22692148696E+01 -1.22692214612E+01 -1.22692283901E+01 -1.22692356748E+01
 -1.22692433326E+01 -1.22692513827E+01 -1.22692598459E+01 -1.22692687433E+01
 -1.22692780961E+01 -1.22692879289E+01 -1.22692982656E+01 -1.22693091322E+01
 -1.22693205558E+01 -1.22693325657E+01 -1.22693451905E+01 -1.22693584626E+01
 -1.22693724153E+01 -1.22693870833E+01 -1.22694025030E+01 -1.22694187134E+01
 -1.22694357547E+01 -1.22694536695E+01 -1.22694725026E+01 -1.22694923011E+01
 -1.22695131147E+01 -1.22695349948E+01 -1.22695579970E+01 -1.22695821780E+01
 -1.22696075981E+01 -1.22696343216E+01 -1.22696624148E+01 -1.22696919480E+01
 -1.22697229947E+01 -1.22697556332E+01 -1.22697899442E+01 -1.22698260134E+01
 -1.22698639317E+01 -1.22699037931E+01 -1.22699456969E+01 -1.22699897489E+01
 -1.22700360582E+01 -1.22700847408E+01 -1.22701359181E+01 -1.22701897179E+01
 -1.22702462746E+01 -1.22703057293E+01 -1.22703682302E+01 -1.22704339335E+01
 -1.22705030034E+01 -1.22705756119E+01 -1.22706519401E+01 -1.22707321787E+01
 -1.22708165276E+01 -1.22709051975E+01 -1.22709984091E+01 -1.22710963954E+01
 -1.22711994003E+01 -1.22713076807E+01 -1.22714215064E+01 -1.22715411612E+01
 -1.22716669428E+01 -1.22717991650E+01 -1.22719381568E+01 -1.22720842644E+01
 -1.22722378517E+01 -1.22723993009E+01 -1.22725690136E+01 -1.22727474121E+01
 -1.22729349402E+01 -1.22731320640E+01 -1.22733392740E+01 -1.22735570844E+01
 -1.22737860363E+01 -1.22740266986E+01 -1.22742796688E+01 -1.22745455744E+01
 -1.22748250749E+01 -1.22751188636E+01 -1.22754276686E+01 -1.22757522547E+01
 -1.22760934259E+01 -1.22764520267E+01 -1.22768289430E+01 -1.22772251079E+01
 -1.22776414999E+01 -1.22780791467E+01 -1.22785391284E+01 -1.22790225794E+01
 -1.22795306910E+01 -1.22800647145E+01 -1.22806259634E+01 -1.22812158177E+01
 -1.22818357259E+01 -1.22824872092E+01 -1.22831718648E+01 -1.22838913695E+01
 -1.22846474828E+01 -1.22854420532E+01 -1.22862770197E+01 -1.22871544170E+01
 -1.22880763823E+01 -1.22890451557E+01 -1.22900630893E+01 -1.22911326500E+01
 -1.22922564268E+01 -1.22934371340E+01 -1.22946776187E+01 -1.22959808665E+01
 -1.22973500083E+01 -1.22987883260E+01 -1.23002992600E+01 -1.23018864155E+01
 -1.23035535715E+01 -1.23053046861E+01 -1.23071439060E+01 -1.23090755748E+01
 -1.23111042401E+01 -1.23132346633E+01 -1.23154718270E+01 -1.23178209466E+01
 -1.23202874780E+01 -1.23228771274E+01 -1.23255958610E+01 -1.23284499162E+01
 -1.23314458110E+01 -1.23345903540E+01 -1.23378906573E+01 -1.23413541443E+01
 -1.23449885616E+01 -1.23488019911E+01 -1.23528028597E+01 -1.23569999505E+01
 -1.23614024127E+01 -1.23660197745E+01 -1.23708619501E+01 -1.23759392528E+01
 -1.23812624034E+01 -1.23868425390E+01 -1.23926912217E+01 -1.23988204473E+01
 -1.24052426511E+01 -1.24119707144E+01 -1.24190179696E+01 -1.24263982019E+01
 -1.24341256542E+01 -1.24422150245E+01 -1.24506814643E+01 -1.24595405771E+01
 -1.24688084087E+01 -1.24785014398E+01 -1.24886365734E+01 -1.24992311188E+01
 -1.25103027743E+01 -1.25218696003E+01 -1.25339499963E+01 -1.25465626641E+01
 -1.25597265751E+01 -1.25734609234E+01 -1.25877850811E+01 -1.26027185402E+01
 -1.26182808540E+01 -1.26344915672E+01 -1.26513701426E+01 -1.26689358758E+01
 -1.26872078062E+01 -1.27062046186E+01 -1.27259445343E+01 -1.27464451999E+01
 -1.27677235616E+01 -1.27897957335E+01 -1.28126768626E+01 -1.28363809783E+01
 -1.28609208415E+01 -1.28863077851E+01 -1.29125515483E+01 -1.29396601073E+01
 -1.29676395039E+01 -1.29964936679E+01 -1.30262242424E+01 -1.30568304085E+01
 -1.30883087107E+01 -1.31206528867E+01 -1.31538537012E+01 -1.31878987819E+01
 -1.32227724664E+01 -1.32584556480E+01 -1.32949256260E+01 -1.33321559591E+01
 -1.33701163102E+01 -1.34087722848E+01 -1.34480852432E+01 -1.34880120858E+01
 -1.35285049848E+01 -1.35695110516E+01 -1.36109719021E+01 -1.36528231001E+01
 -1.36949934365E+01 -1.37374039964E+01 -1.37799669691E+01 -1.38225841378E+01
 -1.38651449872E+01 -1.39075243522E+01 -1.39495795401E+01 -1.39911468402E+01
 -1.40320373506E+01 -1.40720320485E+01 -1.41108760433E+01 -1.41482719781E+01
 -1.41838725605E+01 -1.42172722568E+01 -1.42479982280E+01 -1.42755006512E+01
 -1.42991426595E+01 -1.43181902229E+01 -1.43318024130E+01 -1.43390226151E+01
 -1.43387713965E+01 -1.43298418709E+01 -1.43108985512E+01 -1.42804807840E+01
 -1.42370119779E+01 -1.41788158586E+01 -1.41041409751E+01 -1.40111945559E+01
 -1.38981865972E+01 -1.37633846803E+01 -1.36051795155E+01 -1.34221605033E+01
 -1.32131997707E+01 -1.29775421389E+01 -1.27148973822E+01 -1.24255300034E+01
 -1.21103406636E+01 -1.17709324959E+01 -1.14096549350E+01 -1.10296175690E+01
 -1.06346670301E+01 -1.02293212098E+01 -9.81865720955E+00 -9.40815244087E+00
 -9.00348206656E+00 -8.61028033324E+00 -8.23387791739E+00 -7.87903172313E+00
 -7.54966704330E+00 -7.24865400335E+00 -6.97764017035E+00 -6.73695869219E+00
 -6.52562616421E+00 -6.34143678706E+00 -6.18114988540E+00 -6.04075752420E+00
 -5.91580913907E+00 -5.80176229846E+00 -5.69432435641E+00 -5.58974987771E+00
 -5.48506372114E+00 -5.37818912830E+00 -5.26797280860E+00 -5.15411286397E+00
 -5.03700812990E+00 -4.91755690447E+00 -4.79693747397E+00 -4.67640168763E+00
 -4.55710660666E+00 -4.43999951160E+00 -4.32576051474E+00 -4.21479700723E+00
 -4.10727702785E+00 -4.00318534455E+00 -3.90238654062E+00 -3.80468277314E+00
 -3.70985871091E+00 -3.61771102052E+00 -3.52806357153E+00 -3.44077175491E+00
 -3.35571998661E+00 -3.27281601203E+00 -3.19198459123E+00 -3.11316201812E+00
 -3.03629202034E+00 -2.96132301516E+00 -2.88820643363E+00 -2.81689577254E+00
 -2.74734608908E+00 -2.67951374049E+00 -2.61335624866E+00 -2.54883222451E+00
 -2.48590131992E+00 -2.42452419213E+00 -2.36466247424E+00 -2.30627874881E+00
 -2.24933652327E+00 -2.19380020651E+00 -2.13963508637E+00 -2.08680730785E+00
 -2.03528385183E+00 -1.98503251448E+00 -1.93602188707E+00 -1.88822133637E+00
 -1.84160098546E+00 -1.79613169512E+00 -1.75178504556E+00 -1.70853331868E+00
 -1.66634948074E+00 -1.62520716547E+00 -1.58508065758E+00 -1.54594487670E+00
 -1.50777536170E+00 -1.47054825537E+00 -1.43424028958E+00 -1.39882877066E+00
 -1.36429156525E+00 -1.33060708649E+00 -1.29775428047E+00 -1.26571261312E+00
 -1.23446205735E+00 -1.20398308056E+00 -1.17425663238E+00 -1.14526413283E+00
 -1.11698746064E+00 -1.08940894197E+00 -1.06251133936E+00 -1.03627784092E+00
 -1.01069204986E+00 -9.85737974239E-01 -9.61400016938E-01 -9.37662965944E-01
 -9.14511984827E-01 -8.91932603471E-01 -8.69910709026E-01 -8.48432537093E-01
 -8.27484663114E-01 -8.07053993987E-01 -7.87127759877E-01 -7.67693506241E-01
 -7.48739086037E-01 -7.30252652134E-01 -7.12222649912E-01 -6.94637810030E-01
 -6.77487141392E-01 -6.60759924271E-01 -6.44445703613E-01 -6.28534282498E-01
 -6.13015715770E-01 -5.97880303819E-01 -5.83118586521E-01 -5.68721337322E-01
 -5.54679557472E-01 -5.40984470402E-01 -5.27627516237E-01 -5.14600346445E-01
 -5.01894818621E-01 -4.89502991396E-01 -4.77417119476E-01 -4.65629648797E-01
 -4.54133211806E-01 -4.42920622856E-01 -4.31984873713E-01 -4.21319129179E-01
 -4.10916722815E-01 -4.00771152780E-01 -3.90876077761E-01 -3.81225313015E-01
 -3.71812826500E-01 -3.62632735105E-01 -3.53679300974E-01 -3.44946927919E-01
 -3.36430157923E-01 -3.28123667727E-01 -3.20022265506E-01 -3.12120887617E-01
 -3.04414595444E-01 -2.96898572303E-01 -2.89568120434E-01 -2.82418658067E-01
 -2.75445716554E-01 -2.68644937581E-01 -2.62012070439E-01 -2.55542969370E-01
 -2.49233590976E-01 -2.43079991689E-01 -2.37078325310E-01 -2.31224840602E-01
 -2.25515878947E-01 -2.19947872056E-01 -2.14517339746E-01 -2.09220887756E-01
 -2.04055205632E-01 -1.99017064654E-01 -1.94103315820E-01 -1.89310887877E-01
 -1.84636785401E-01 -1.80078086927E-01 -1.75631943119E-01 -1.71295574992E-01
 -1.67066272177E-01
</PP_LOCAL>


<PP_NONLOCAL>
  <PP_BETA>
    1    0             Beta    L
   362
  4.82347595061E-03  4.94558341734E-03  5.07078230616E-03  5.19915043739E-03
  5.33076839193E-03  5.46571830383E-03  5.60408472300E-03  5.74595375175E-03
  5.89141442645E-03  6.04055750832E-03  6.19347617434E-03  6.35026619022E-03
  6.51102556431E-03  6.67585454816E-03  6.84485632684E-03  7.01813667356E-03
  7.19580360441E-03  7.37796858671E-03  7.56474498574E-03  7.75625013527E-03
  7.95260326741E-03  8.15392723717E-03  8.36034817854E-03  8.57199481318E-03
  8.78899965933E-03  9.01149834069E-03  9.23962975930E-03  9.47353678593E-03
  9.71336556939E-03  9.95926605526E-03  1.02113918112E-02  1.04699008924E-02
  1.07349544594E-02  1.10067183306E-02  1.12853626388E-02  1.15710614856E-02
  1.18639934577E-02  1.21643418015E-02  1.24722942481E-02  1.27880433614E-02
  1.31117867074E-02  1.34437265113E-02  1.37840705204E-02  1.41330313120E-02
  1.44908275019E-02  1.48576825383E-02  1.52338260795E-02  1.56194931331E-02
  1.60149250900E-02  1.64203692081E-02  1.68360789547E-02  1.72623138377E-02
  1.76993423360E-02  1.81474363785E-02  1.86068772111E-02  1.90779495302E-02
  1.95609518346E-02  2.00561843478E-02  2.05639559198E-02  2.10845874775E-02
  2.16184016727E-02  2.21657332328E-02  2.27269255133E-02  2.33023304930E-02
  2.38923070521E-02  2.44972244230E-02  2.51174621870E-02  2.57534068260E-02
  2.64054586228E-02  2.70740247613E-02  2.77595244982E-02  2.84623874417E-02
  2.91830535503E-02  2.99219731303E-02  3.06796102881E-02  3.14564377557E-02
  3.22529472380E-02  3.30696321622E-02  3.39070083806E-02  3.47655986427E-02
  3.56459429461E-02  3.65485933601E-02  3.74741140250E-02  3.84230880544E-02
  3.93961089070E-02  4.03937872853E-02  4.14167511379E-02  4.24656422075E-02
  4.35411177532E-02  4.46438557295E-02  4.57745461533E-02  4.69339031876E-02
  4.81226513289E-02  4.93415426672E-02  5.05913396260E-02  5.18728322174E-02
  5.31868242350E-02  5.45341453337E-02  5.59156441224E-02  5.73321898900E-02
  5.87846760525E-02  6.02740184260E-02  6.18011569492E-02  6.33670574070E-02
  6.49727062504E-02  6.66191192197E-02  6.83073378938E-02  7.00384296792E-02
  7.18134929893E-02  7.36336486112E-02  7.55000517769E-02  7.74138869822E-02
  7.93763697068E-02  8.13887446843E-02  8.34522945209E-02  8.55683310593E-02
  8.77382022788E-02  8.99632905545E-02  9.22450178218E-02  9.45848421312E-02
  9.69842593450E-02  9.94448065819E-02  1.01968060484E-01  1.04555642370E-01
  1.07209216504E-01  1.09930488345E-01  1.12721213157E-01  1.15583194268E-01
  1.18518283041E-01  1.21528380582E-01  1.24615439437E-01  1.27781468739E-01
  1.31028530721E-01  1.34358744147E-01  1.37774289436E-01  1.41277405170E-01
  1.44870394970E-01  1.48555627416E-01  1.52335534294E-01  1.56212622600E-01
  1.60189467584E-01  1.64268716117E-01  1.68453098695E-01  1.72745410371E-01
  1.77148572782E-01  1.81665502908E-01  1.86299325168E-01  1.91053145285E-01
  1.95930222679E-01  2.00933901281E-01  2.06067643880E-01  2.11334997434E-01
  2.16739627349E-01  2.22285300003E-01  2.27975916981E-01  2.33815514809E-01
  2.39808212872E-01  2.45958316565E-01  2.52270247896E-01  2.58748579573E-01
  2.65398017254E-01  2.72223433515E-01  2.79229884523E-01  2.86422574844E-01
  2.93806925703E-01  3.01388487945E-01  3.09173044592E-01  3.17166609810E-01
  3.25375341533E-01  3.33805695434E-01  3.42464319974E-01  3.51358123839E-01
  3.60494291388E-01  3.69880246170E-01  3.79523717665E-01  3.89432721576E-01
  3.99615608734E-01  4.10081027511E-01  4.20838040989E-01  4.31895985095E-01
  4.43264636656E-01  4.54954156674E-01  4.66975153737E-01  4.79338660634E-01
  4.92056179008E-01  5.05139706015E-01  5.18601777221E-01  5.32455456707E-01
  5.46714377715E-01  5.61392798947E-01  5.76505607934E-01  5.92068373987E-01