<PP_INFO>
Generated using unknown code
Author: X. Gonze et al.   Generation date: 1990
Info:  Se BHS modified for use as KB with l=2 as local part
    1        The Pseudo was generated with a Scalar-Relativistic Calculation
  0.00000000000E+00    Local Potential cutoff radius
nl pn  l   occ               Rcut            Rcut US             E pseu
4S  0  0  2.00      0.00000000000      0.00000000000      0.00000000000
4P  0  1  4.00      0.00000000000      0.00000000000      0.00000000000
</PP_INFO>


<PP_HEADER>
   0                   Version Number
  Se                   Element
   NC                  Norm - Conserving pseudopotential
    F                  Nonlinear Core Correction
 SLA  PZ   NOGX NOGC   PZ   Exchange-Correlation functional
    6.00000000000      Z valence
    0.00000000000      Total energy
  0.0000000  0.0000000 Suggested cutoff for wfc and rho
    1                  Max angular momentum component
  585                  Number of points in mesh
    2    2             Number of Wavefunctions, Number of Projectors
 Wavefunctions         nl  l   occ
                       4S  0  2.00
                       4P  1  4.00
</PP_HEADER>


<PP_MESH>
  <PP_R>
  2.68200578104E-05  2.74990108064E-05  2.81951515792E-05  2.89089152397E-05
  2.96407479132E-05  3.03911070190E-05  3.11604615561E-05  3.19492923960E-05
  3.27580925837E-05  3.35873676456E-05  3.44376359056E-05  3.53094288092E-05
  3.62032912551E-05  3.71197819366E-05  3.80594736902E-05  3.90229538537E-05
  4.00108246338E-05  4.10237034816E-05  4.20622234796E-05  4.31270337366E-05
  4.42187997935E-05  4.53382040397E-05  4.64859461393E-05  4.76627434685E-05
  4.88693315639E-05  5.01064645824E-05  5.13749157724E-05  5.26754779571E-05
  5.40089640303E-05  5.53762074641E-05  5.67780628302E-05  5.82154063339E-05
  5.96891363616E-05  6.12001740426E-05  6.27494638246E-05  6.43379740642E-05
  6.59666976319E-05  6.76366525331E-05  6.93488825438E-05  7.11044578637E-05
  7.29044757843E-05  7.47500613756E-05  7.66423681885E-05  7.85825789765E-05
  8.05719064344E-05  8.26115939566E-05  8.47029164144E-05  8.68471809522E-05
  8.90457278052E-05  9.12999311367E-05  9.36111998973E-05  9.59809787052E-05
  9.84107487492E-05  1.00902028715E-04  1.03456375733E-04  1.06075386353E-04
  1.08760697544E-04  1.11513987710E-04  1.14336977749E-04  1.17231432121E-04
  1.20199159955E-04  1.23242016176E-04  1.26361902669E-04  1.29560769465E-04
  1.32840615959E-04  1.36203492163E-04  1.39651499983E-04  1.43186794536E-04
  1.46811585497E-04  1.50528138479E-04  1.54338776447E-04  1.58245881174E-04
  1.62251894728E-04  1.66359320999E-04  1.70570727260E-04  1.74888745779E-04
  1.79316075456E-04  1.83855483518E-04  1.88509807243E-04  1.93281955733E-04
  1.98174911738E-04  2.03191733513E-04  2.08335556737E-04  2.13609596465E-04
  2.19017149145E-04  2.24561594672E-04  2.30246398507E-04  2.36075113835E-04
  2.42051383795E-04  2.48178943749E-04  2.54461623621E-04  2.60903350292E-04
  2.67508150050E-04  2.74280151110E-04  2.81223586192E-04  2.88342795171E-04
  2.95642227783E-04  3.03126446412E-04  3.10800128937E-04  3.18668071660E-04
  3.26735192301E-04  3.35006533074E-04  3.43487263835E-04  3.52182685318E-04
  3.61098232443E-04  3.70239477719E-04  3.79612134720E-04  3.89222061663E-04
  3.99075265065E-04  4.09177903498E-04  4.19536291441E-04  4.30156903223E-04
  4.41046377073E-04  4.52211519265E-04  4.63659308378E-04  4.75396899652E-04
  4.87431629464E-04  4.99771019911E-04  5.12422783515E-04  5.25394828039E-04
  5.38695261433E-04  5.52332396902E-04  5.66314758100E-04  5.80651084456E-04
  5.95350336641E-04  6.10421702168E-04  6.25874601129E-04  6.41718692089E-04
  6.57963878123E-04  6.74620312998E-04  6.91698407530E-04  7.09208836083E-04
  7.27162543245E-04  7.45570750668E-04  7.64444964081E-04  7.83796980481E-04
  8.03638895509E-04  8.23983111007E-04  8.44842342772E-04  8.66229628503E-04
  8.88158335951E-04  9.10642171270E-04  9.33695187590E-04  9.57331793797E-04
  9.81566763539E-04  1.00641524446E-03  1.03189276767E-03  1.05801525745E-03
  1.08479904121E-03  1.11226085969E-03  1.14041787740E-03  1.16928769342E-03
  1.19888835230E-03  1.22923835544E-03  1.26035667256E-03  1.29226275363E-03
  1.32497654099E-03  1.35851848181E-03  1.39290954092E-03  1.42817121382E-03
  1.46432554023E-03  1.50139511777E-03  1.53940311613E-03  1.57837329155E-03
  1.61833000166E-03  1.65929822070E-03  1.70130355514E-03  1.74437225969E-03
  1.78853125368E-03  1.83380813793E-03  1.88023121196E-03  1.92782949171E-03
  1.97663272764E-03  2.02667142337E-03  2.07797685472E-03  2.13058108924E-03
  2.18451700630E-03  2.23981831761E-03  2.29651958827E-03  2.35465625843E-03
  2.41426466541E-03  2.47538206639E-03  2.53804666175E-03  2.60229761888E-03
  2.66817509675E-03  2.73572027090E-03  2.80497535928E-03  2.87598364857E-03
  2.94878952126E-03  3.02343848339E-03  3.09997719300E-03  3.17845348926E-03
  3.25891642242E-03  3.34141628443E-03  3.42600464040E-03  3.51273436079E-03
  3.60165965450E-03  3.69283610274E-03  3.78632069376E-03  3.88217185847E-03
  3.98044950696E-03  4.08121506597E-03  4.18453151725E-03  4.29046343695E-03
  4.39907703596E-03  4.51044020132E-03  4.62462253864E-03  4.74169541558E-03
  4.86173200652E-03  4.98480733822E-03  5.11099833678E-03  5.24038387567E-03
  5.37304482508E-03  5.50906410241E-03  5.64852672414E-03  5.79151985895E-03
  5.93813288220E-03  6.08845743180E-03  6.24258746549E-03  6.40061931957E-03
  6.56265176907E-03  6.72878608957E-03  6.89912612041E-03  7.07377832966E-03
  7.25285188064E-03  7.43645870014E-03  7.62471354841E-03  7.81773409085E-03
  8.01564097159E-03  8.21855788886E-03  8.42661167236E-03  8.63993236246E-03
  8.85865329154E-03  9.08291116729E-03  9.31284615821E-03  9.54860198113E-03
  9.79032599112E-03  1.00381692736E-02  1.02922867386E-02  1.05528372178E-02
  1.08199835639E-02  1.10938927519E-02  1.13747359840E-02  1.16626887963E-02
  1.19579311688E-02  1.22606476376E-02  1.25710274103E-02  1.28892644843E-02
  1.32155577682E-02  1.35501112059E-02  1.38931339041E-02  1.42448402634E-02
  1.46054501115E-02  1.49751888414E-02  1.53542875518E-02  1.57429831917E-02
  1.61415187086E-02  1.65501432002E-02  1.69691120700E-02  1.73986871873E-02
  1.78391370504E-02  1.82907369549E-02  1.87537691653E-02  1.92285230921E-02
  1.97152954716E-02  2.02143905527E-02  2.07261202858E-02  2.12508045189E-02
  2.17887711965E-02  2.23403565654E-02  2.29059053845E-02  2.34857711400E-02
  2.40803162670E-02  2.46899123756E-02  2.53149404831E-02  2.59557912525E-02
  2.66128652364E-02  2.72865731273E-02  2.79773360147E-02  2.86855856479E-02
  2.94117647059E-02  3.01563270742E-02  3.09197381287E-02  3.17024750260E-02
  3.25050270022E-02  3.33278956784E-02  3.41715953744E-02  3.50366534298E-02
  3.59236105341E-02  3.68330210645E-02  3.77654534320E-02  3.87214904373E-02
  3.97017296346E-02  4.07067837053E-02  4.17372808410E-02  4.27938651358E-02
  4.38771969894E-02  4.49879535195E-02  4.61268289850E-02  4.72945352202E-02
  4.84918020794E-02  4.97193778935E-02  5.09780299373E-02  5.22685449092E-02
  5.35917294233E-02  5.49484105127E-02  5.63394361475E-02  5.77656757638E-02
  5.92280208080E-02  6.07273852931E-02  6.22647063710E-02  6.38409449172E-02
  6.54570861321E-02  6.71141401567E-02  6.88131427037E-02  7.05551557049E-02
  7.23412679752E-02  7.41725958929E-02  7.60502840975E-02  7.79755062054E-02
  7.99494655429E-02  8.19733958990E-02  8.40485622960E-02  8.61762617804E-02
  8.83578242337E-02  9.05946132035E-02  9.28880267556E-02  9.52394983482E-02
  9.76504977275E-02  1.00122531847E-01  1.02657145808E-01  1.05255923827E-01
  1.07920490224E-01  1.10652510441E-01  1.13453692079E-01  1.16325785968E-01
  1.19270587260E-01  1.22289936552E-01  1.25385721034E-01  1.28559875674E-01
  1.31814384422E-01  1.35151281450E-01  1.38572652429E-01  1.42080635827E-01
  1.45677424247E-01  1.49365265799E-01  1.53146465505E-01  1.57023386737E-01
  1.60998452698E-01  1.65074147932E-01  1.69253019883E-01  1.73537680480E-01
  1.77930807777E-01  1.82435147621E-01  1.87053515371E-01  1.91788797657E-01
  1.96643954185E-01  2.01622019585E-01  2.06726105311E-01  2.11959401583E-01
  2.17325179380E-01  2.22826792489E-01  2.28467679597E-01  2.34251366442E-01
  2.40181468017E-01  2.46261690827E-01  2.52495835211E-01  2.58887797711E-01
  2.65441573513E-01  2.72161258938E-01  2.79051054011E-01  2.86115265075E-01
  2.93358307495E-01  3.00784708406E-01  3.08399109551E-01  3.16206270179E-01
  3.24211070019E-01  3.32418512332E-01  3.40833727036E-01  3.49461973915E-01
  3.58308645903E-01  3.67379272459E-01  3.76679523020E-01  3.86215210544E-01
  3.95992295147E-01  4.06016887826E-01  4.16295254276E-01  4.26833818811E-01
  4.37639168379E-01  4.48718056672E-01  4.60077408358E-01  4.71724323402E-01
  4.83666081503E-01  4.95910146650E-01  5.08464171781E-01  5.21336003572E-01
  5.34533687337E-01  5.48065472056E-01  5.61939815536E-01  5.76165389694E-01
  5.90751085976E-01  6.05706020918E-01  6.21039541839E-01  6.36761232692E-01
  6.52880920042E-01  6.69408679221E-01  6.86354840616E-01  7.03729996129E-01
  7.21545005797E-01  7.39811004583E-01  7.58539409329E-01  7.77741925899E-01
  7.97430556490E-01  8.17617607137E-01  8.38315695405E-01  8.59537758272E-01
  8.81297060218E-01  9.03607201515E-01  9.26482126728E-01  9.49936133430E-01
  9.73983881138E-01  9.98640400478E-01  1.02392110258E+00  1.04984178870E+00
  1.07641866011E+00  1.10366832822E+00  1.13160782497E+00  1.16025461345E+00
  1.18962659883E+00  1.21974213955E+00  1.25062005883E+00  1.28227965634E+00
  1.31474072039E+00  1.34802354019E+00  1.38214891858E+00  1.41713818503E+00
  1.45301320899E+00  1.48979641350E+00  1.52751078926E+00  1.56617990899E+00
  1.60582794215E+00  1.64647967005E+00  1.68816050134E+00  1.73089648789E+00
  1.77471434110E+00  1.81964144854E+00  1.86570589112E+00  1.91293646062E+00
  1.96136267767E+00  2.01101481025E+00  2.06192389255E+00  2.11412174440E+00
  2.16764099116E+00  2.22251508411E+00  2.27877832133E+00  2.33646586918E+00
  2.39561378426E+00  2.45625903594E+00  2.51843952948E+00  2.58219412970E+00
  2.64756268531E+00  2.71458605378E+00  2.78330612691E+00  2.85376585697E+00
  2.92600928359E+00  3.00008156126E+00  3.07602898756E+00  3.15389903212E+00
  3.23374036624E+00  3.31560289335E+00  3.39953778021E+00  3.48559748884E+00
  3.57383580937E+00  3.66430789362E+00  3.75707028959E+00  3.85218097679E+00
  3.94969940250E+00  4.04968651891E+00  4.15220482122E+00  4.25731838671E+00
  4.36509291478E+00  4.47559576802E+00  4.58889601431E+00  4.70506446998E+00
  4.82417374411E+00  4.94629828388E+00  5.07151442108E+00  5.19990041990E+00
  5.33153652574E+00  5.46650501547E+00  5.60489024878E+00  5.74677872096E+00
  5.89225911691E+00  6.04142236661E+00  6.19436170196E+00  6.35117271502E+00
  6.51195341777E+00  6.67680430339E+00  6.84582840905E+00  7.01913138031E+00
  7.19682153718E+00  7.37900994179E+00  7.56581046782E+00  7.75733987167E+00
  7.95371786548E+00  8.15506719186E+00  8.36151370070E+00  8.57318642780E+00
  8.79021767550E+00  9.01274309539E+00  9.24090177311E+00  9.47483631525E+00
  9.71469293852E+00  9.96062156112E+00  1.02127758964E+01  1.04713135491E+01
  1.07363961137E+01  1.10081892753E+01  1.12868629136E+01  1.15725912086E+01
  1.18655527498E+01  1.21659306477E+01  1.24739126484E+01  1.27896912505E+01
  1.31134638260E+01  1.34454327432E+01  1.37858054936E+01  1.41347948212E+01
  1.44926188557E+01  1.48595012487E+01  1.52356713138E+01  1.56213641694E+01
  1.60168208861E+01  1.64222886372E+01  1.68380208533E+01  1.72642773806E+01
  1.77013246433E+01  1.81494358101E+01  1.86088909651E+01  1.90799772827E+01
  1.95629892072E+01  2.00582286368E+01  2.05660051122E+01  2.10866360104E+01
  2.16204467424E+01  2.21677709575E+01  2.27289507510E+01  2.33043368787E+01
  2.38942889755E+01  2.44991757808E+01  2.51193753684E+01  2.57552753834E+01
  2.64072732838E+01  2.70757765897E+01  2.77612031374E+01  2.84639813407E+01
  2.91845504590E+01  2.99233608713E+01  3.06808743582E+01  3.14575643904E+01
  3.22539164244E+01  3.30704282060E+01  3.39076100819E+01  3.47659853178E+01
  3.56460904263E+01  3.65484755016E+01  3.74737045639E+01  3.84223559115E+01
  3.93950224822E+01  4.03923122244E+01  4.14148484766E+01  4.24632703573E+01
  4.35382331643E+01  4.46404087842E+01  4.57704861129E+01  4.69291714853E+01
  4.81171891175E+01  4.93352815593E+01  5.05842101581E+01  5.18647555349E+01
  5.31777180722E+01  5.45239184144E+01  5.59041979806E+01  5.73194194903E+01
  5.87704675031E+01
  </PP_R>
  <PP_RAB>
  6.70501445261E-07  6.87475270159E-07  7.04878789481E-07  7.22722880992E-07
  7.41018697830E-07  7.59777675476E-07  7.79011538903E-07  7.98732309900E-07
  8.18952314592E-07  8.39684191139E-07  8.60940897641E-07  8.82735720229E-07
  9.05082281378E-07  9.27994548415E-07  9.51486842254E-07  9.75573846343E-07
  1.00027061584E-06  1.02559258704E-06  1.05155558699E-06  1.07817584341E-06
  1.10546999484E-06  1.13345510099E-06  1.16214865348E-06  1.19156858671E-06
  1.22173328910E-06  1.25266161456E-06  1.28437289431E-06  1.31688694893E-06
  1.35022410076E-06  1.38440518660E-06  1.41945157076E-06  1.45538515835E-06
  1.49222840904E-06  1.53000435107E-06  1.56873659562E-06  1.60844935161E-06
  1.64916744080E-06  1.69091631333E-06  1.73372206360E-06  1.77761144659E-06
  1.82261189461E-06  1.86875153439E-06  1.91605920471E-06  1.96456447441E-06
  2.01429766086E-06  2.06528984892E-06  2.11757291036E-06  2.17117952380E-06
  2.22614319513E-06  2.28249827842E-06  2.34027999743E-06  2.39952446763E-06
  2.46026871873E-06  2.52255071787E-06  2.58640939332E-06  2.65188465884E-06
  2.71901743859E-06  2.78784969276E-06  2.85842444373E-06  2.93078580304E-06
  3.00497899887E-06  3.08105040440E-06  3.15904756673E-06  3.23901923662E-06
  3.32101539898E-06  3.40508730407E-06  3.49128749957E-06  3.57966986340E-06
  3.67028963743E-06  3.76320346197E-06  3.85846941116E-06  3.95614702935E-06
  4.05629736821E-06  4.15898302497E-06  4.26426818150E-06  4.37221864446E-06
  4.48290188641E-06  4.59638708796E-06  4.71274518107E-06  4.83204889333E-06
  4.95437279345E-06  5.07979333783E-06  5.20838891842E-06  5.34023991163E-06
  5.47542872862E-06  5.61403986681E-06  5.75615996267E-06  5.90187784588E-06
  6.05128459487E-06  6.20447359371E-06  6.36154059053E-06  6.52258375730E-06
  6.68770375125E-06  6.85700377774E-06  7.03058965481E-06  7.20856987928E-06
  7.39105569458E-06  7.57816116029E-06  7.77000322342E-06  7.96670179150E-06
  8.16837980753E-06  8.37516332685E-06  8.58718159588E-06  8.80456713294E-06
  9.02745581108E-06  9.25598694297E-06  9.49030336800E-06  9.73055154157E-06
  9.97688162662E-06  1.02294475875E-05  1.04884072860E-05  1.07539225806E-05
  1.10261594268E-05  1.13052879816E-05  1.15914827095E-05  1.18849224913E-05
  1.21857907366E-05  1.24942754978E-05  1.28105695879E-05  1.31348707010E-05
  1.34673815358E-05  1.38083099226E-05  1.41578689525E-05  1.45162771114E-05
  1.48837584160E-05  1.52605425542E-05  1.56468650282E-05  1.60429673022E-05
  1.64490969531E-05  1.68655078249E-05  1.72924601882E-05  1.77302209021E-05
  1.81790635811E-05  1.86392687667E-05  1.91111241020E-05  1.95949245120E-05
  2.00909723877E-05  2.05995777752E-05  2.11210585693E-05  2.16557407126E-05
  2.22039583988E-05  2.27660542817E-05  2.33423796898E-05  2.39332948449E-05
  2.45391690885E-05  2.51603811115E-05  2.57973191918E-05  2.64503814363E-05
  2.71199760303E-05  2.78065214922E-05  2.85104469351E-05  2.92321923355E-05
  2.99722088076E-05  3.07309588860E-05  3.15089168140E-05  3.23065688407E-05
  3.31244135247E-05  3.39629620454E-05  3.48227385229E-05  3.57042803456E-05
  3.66081385058E-05  3.75348779442E-05  3.84850779033E-05  3.94593322888E-05
  4.04582500415E-05  4.14824555175E-05  4.25325888786E-05  4.36093064922E-05
  4.47132813421E-05  4.58452034483E-05  4.70057802990E-05  4.81957372927E-05
  4.94158181910E-05  5.06667855843E-05  5.19494213680E-05  5.32645272311E-05
  5.46129251576E-05  5.59954579402E-05  5.74129897067E-05  5.88664064608E-05
  6.03566166352E-05  6.18845516598E-05  6.34511665437E-05  6.50574404721E-05
  6.67043774187E-05  6.83930067725E-05  7.01243839820E-05  7.18995912142E-05
  7.37197380315E-05  7.55859620848E-05  7.74994298249E-05  7.94613372315E-05
  8.14729105605E-05  8.35354071109E-05  8.56501160099E-05  8.78183590196E-05
  9.00414913625E-05  9.23209025685E-05  9.46580173440E-05  9.70542964616E-05
  9.95112376740E-05  1.02030376649E-04  1.04613287931E-04  1.07261585924E-04
  1.09976925899E-04  1.12761005033E-04  1.15615563466E-04  1.18542385390E-04
  1.21543300163E-04  1.24620183455E-04  1.27774958419E-04  1.31009596892E-04
  1.34326120627E-04  1.37726602560E-04  1.41213168103E-04  1.44787996474E-04
  1.48453322055E-04  1.52211435795E-04  1.56064686637E-04  1.60015482989E-04
  1.64066294227E-04  1.68219652239E-04  1.72478153010E-04  1.76844458241E-04
  1.81321297016E-04  1.85911467503E-04  1.90617838710E-04  1.95443352271E-04
  2.00391024290E-04  2.05463947222E-04  2.10665291809E-04  2.15998309061E-04
  2.21466332288E-04  2.27072779182E-04  2.32821153955E-04  2.38715049528E-04
  2.44758149778E-04  2.50954231839E-04  2.57307168464E-04  2.63820930446E-04
  2.70499589097E-04  2.77347318796E-04  2.84368399599E-04  2.91567219908E-04
  2.98948279221E-04  3.06516190940E-04  3.14275685256E-04  3.22231612107E-04
  3.30388944204E-04  3.38752780146E-04  3.47328347604E-04  3.56121006585E-04
  3.65136252788E-04  3.74379721035E-04  3.83857188795E-04  3.93574579793E-04
  4.03537967716E-04  4.13753580005E-04  4.24227801750E-04  4.34967179681E-04
  4.45978426259E-04  4.57268423871E-04  4.68844229134E-04  4.80713077301E-04
  4.92882386791E-04  5.05359763817E-04  5.18153007146E-04  5.31270112972E-04
  5.44719279913E-04  5.58508914136E-04  5.72647634611E-04  5.87144278500E-04
  6.02007906675E-04  6.17247809389E-04  6.32873512077E-04  6.48894781312E-04
  6.65321630909E-04  6.82164328183E-04  6.99433400368E-04  7.17139641197E-04
  7.35294117647E-04  7.53908176856E-04  7.72993453218E-04  7.92561875650E-04
  8.12625675056E-04  8.33197391961E-04  8.54289884359E-04  8.75916335744E-04
  8.98090263353E-04  9.20825526612E-04  9.44136335800E-04  9.68037260932E-04
  9.92543240865E-04  1.01766959263E-03  1.04343202102E-03  1.06984662840E-03
  1.09692992474E-03  1.12469883799E-03  1.15317072463E-03  1.18236338050E-03
  1.21229505199E-03  1.24298444734E-03  1.27445074843E-03  1.30671362273E-03
  1.33979323558E-03  1.37371026282E-03  1.40848590369E-03  1.44414189410E-03
  1.48070052020E-03  1.51818463233E-03  1.55661765927E-03  1.59602362293E-03
  1.63642715330E-03  1.67785350392E-03  1.72032856759E-03  1.76387889262E-03
  1.80853169938E-03  1.85431489732E-03  1.90125710244E-03  1.94938765513E-03
  1.99873663857E-03  2.04933489747E-03  2.10121405740E-03  2.15440654451E-03
  2.20894560584E-03  2.26486533009E-03  2.32220066889E-03  2.38098745870E-03
  2.44126244319E-03  2.50306329617E-03  2.56642864519E-03  2.63139809566E-03
  2.69801225560E-03  2.76631276103E-03  2.83634230198E-03  2.90814464921E-03
  2.98176468150E-03  3.05724841379E-03  3.13464302586E-03  3.21399689186E-03
  3.29535961054E-03  3.37878203625E-03  3.46431631073E-03  3.55201589567E-03
  3.64193560617E-03  3.73413164499E-03  3.82866163763E-03  3.92558466844E-03
  4.02496131745E-03  4.12685369830E-03  4.23132549706E-03  4.33844201200E-03
  4.44827019442E-03  4.56087869052E-03  4.67633788427E-03  4.79471994142E-03
  4.91609885462E-03  5.04055048963E-03  5.16815263279E-03  5.29898503957E-03
  5.43312948451E-03  5.57066981223E-03  5.71169198993E-03  5.85628416105E-03
  6.00453670042E-03  6.15654227068E-03  6.31239588028E-03  6.47219494279E-03
  6.63603933782E-03  6.80403147346E-03  6.97627635026E-03  7.15288162688E-03
  7.33395768736E-03  7.51961771014E-03  7.70997773877E-03  7.90515675447E-03
  8.10527675047E-03  8.31046280829E-03  8.52084317590E-03  8.73654934787E-03
  8.95771614758E-03  9.18448181148E-03  9.41698807549E-03  9.65538026360E-03
  9.89980737868E-03  1.01504221956E-02  1.04073813569E-02  1.06708454703E-02
  1.09409792095E-02  1.12179514168E-02  1.15019352090E-02  1.17931080850E-02
  1.20916520376E-02  1.23977536662E-02  1.27116042945E-02  1.30334000893E-02
  1.33633421834E-02  1.37016368014E-02  1.40484953884E-02  1.44041347424E-02
  1.47687771494E-02  1.51426505229E-02  1.55259885460E-02  1.59190308173E-02
  1.63220230011E-02  1.67352169805E-02  1.71588710154E-02  1.75932499032E-02
  1.80386251449E-02  1.84952751146E-02  1.89634852332E-02  1.94435481475E-02
  1.99357639122E-02  2.04404401784E-02  2.09578923851E-02  2.14884439568E-02
  2.20324265054E-02  2.25901800379E-02  2.31620531682E-02  2.37484033357E-02
  2.43495970285E-02  2.49660100119E-02  2.55980275644E-02  2.62460447174E-02
  2.69104665027E-02  2.75917082056E-02  2.82901956243E-02  2.90063653362E-02
  2.97406649706E-02  3.04935534888E-02  3.12655014706E-02  3.20569914086E-02
  3.28685180098E-02  3.37005885047E-02  3.45537229644E-02  3.54284546258E-02
  3.63253302247E-02  3.72449103374E-02  3.81877697315E-02  3.91544977248E-02
  4.01456985538E-02  4.11619917512E-02  4.22040125334E-02  4.32724121973E-02
  4.43678585275E-02  4.54910362135E-02  4.66426472780E-02  4.78234115155E-02
  4.90340669419E-02  5.02753702563E-02  5.15480973137E-02  5.28530436100E-02
  5.41910247791E-02  5.55628771027E-02  5.69694580333E-02  5.84116467296E-02
  5.98903446066E-02  6.14064758986E-02  6.29609882369E-02  6.45548532425E-02
  6.61890671327E-02  6.78646513446E-02  6.95826531727E-02  7.13441464242E-02
  7.31502320897E-02  7.50020390314E-02  7.69007246891E-02  7.88474758030E-02
  8.08435091560E-02  8.28900723339E-02  8.49884445053E-02  8.71399372211E-02
  8.93458952344E-02  9.16076973406E-02  9.39267572397E-02  9.63045244197E-02
  9.87424850625E-02  1.01242162973E-01  1.03805120530E-01  1.06432959668E-01
  1.09127322870E-01  1.11889894200E-01  1.14722400358E-01  1.17626611750E-01
  1.20604343603E-01  1.23657457097E-01  1.26787860527E-01  1.29997510497E-01
  1.33288413143E-01  1.36662625387E-01  1.40122256220E-01  1.43669468024E-01
  1.47306477923E-01  1.51035559165E-01  1.54859042549E-01  1.58779317875E-01
  1.62798835444E-01  1.66920107585E-01  1.71145710226E-01  1.75478284508E-01
  1.79920538430E-01  1.84475248545E-01  1.89145261695E-01  1.93933496792E-01
  1.98842946637E-01  2.03876679796E-01  2.09037842518E-01  2.14329660695E-01
  2.19755441888E-01  2.25318577385E-01  2.31022544328E-01  2.36870907881E-01
  2.42867323463E-01  2.49015539028E-01  2.55319397411E-01  2.61782838729E-01
  2.68409902842E-01  2.75204731883E-01  2.82171572839E-01  2.89314780214E-01
  2.96638818745E-01  3.04148266193E-01  3.11847816209E-01  3.19742281262E-01
  3.27836595649E-01  3.36135818580E-01  3.44645137340E-01  3.53369870530E-01
  3.62315471392E-01  3.71487531218E-01  3.80891782844E-01  3.90534104234E-01
  4.00420522151E-01  4.10557215930E-01  4.20950521334E-01  4.31606934516E-01
  4.42533116082E-01  4.53735895252E-01  4.65222274127E-01  4.76999432067E-01
  4.89074730180E-01  5.01455715920E-01  5.14150127806E-01  5.27165900259E-01
  5.40511168560E-01  5.54194273937E-01  5.68223768776E-01  5.82608421967E-01
  5.97357224388E-01  6.12479394519E-01  6.27984384210E-01  6.43881884584E-01
  6.60181832096E-01  6.76894414743E-01  6.94030078435E-01  7.11599533518E-01
  7.29613761474E-01  7.48084021782E-01  7.67021858956E-01  7.86439109760E-01
  8.06347910609E-01  8.26760705151E-01  8.47690252047E-01  8.69149632945E-01
  8.91152260656E-01  9.13711887540E-01  9.36842614098E-01  9.60558897786E-01
  9.84875562055E-01  1.00980780561E+00  1.03537121192E+00  1.06158175893E+00
  1.08845582911E+00  1.11601021961E+00  1.14426215282E+00  1.17322928713E+00
  1.20292972794E+00  1.23338203898E+00  1.26460525395E+00  1.29661888837E+00
  1.32944295181E+00  1.36309796036E+00  1.39760494951E+00  1.43298548726E+00
  1.46926168758E+00
  </PP_RAB>
</PP_MESH>


<PP_LOCAL>
 -5.47103804470E+00 -5.47103804510E+00 -5.47103804560E+00 -5.47103804600E+00
 -5.47103804650E+00 -5.47103804700E+00 -5.47103804750E+00 -5.47103804810E+00
 -5.47103804860E+00 -5.47103804930E+00 -5.47103804990E+00 -5.47103805060E+00
 -5.47103805130E+00 -5.47103805200E+00 -5.47103805280E+00 -5.47103805360E+00
 -5.47103805450E+00 -5.47103805540E+00 -5.47103805640E+00 -5.47103805740E+00
 -5.47103805840E+00 -5.47103805950E+00 -5.47103806070E+00 -5.47103806190E+00
 -5.47103806320E+00 -5.47103806460E+00 -5.47103806600E+00 -5.47103806750E+00
 -5.47103806910E+00 -5.47103807070E+00 -5.47103807250E+00 -5.47103807430E+00
 -5.47103807620E+00 -5.47103807830E+00 -5.47103808040E+00 -5.47103808260E+00
 -5.47103808500E+00 -5.47103808740E+00 -5.47103809000E+00 -5.47103809280E+00
 -5.47103809560E+00 -5.47103809870E+00 -5.47103810180E+00 -5.47103810520E+00
 -5.47103810870E+00 -5.47103811240E+00 -5.47103811620E+00 -5.47103812030E+00
 -5.47103812460E+00 -5.47103812910E+00 -5.47103813380E+00 -5.47103813880E+00
 -5.47103814410E+00 -5.47103814960E+00 -5.47103815530E+00 -5.47103816140E+00
 -5.47103816780E+00 -5.47103817450E+00 -5.47103818160E+00 -5.47103818900E+00
 -5.47103819680E+00 -5.47103820500E+00 -5.47103821370E+00 -5.47103822270E+00
 -5.47103823230E+00 -5.47103824230E+00 -5.47103825280E+00 -5.47103826390E+00
 -5.47103827560E+00 -5.47103828780E+00 -5.47103830070E+00 -5.47103831420E+00
 -5.47103832840E+00 -5.47103834340E+00 -5.47103835910E+00 -5.47103837560E+00
 -5.47103839300E+00 -5.47103841130E+00 -5.47103843050E+00 -5.47103845060E+00
 -5.47103847190E+00 -5.47103849420E+00 -5.47103851760E+00 -5.47103854230E+00
 -5.47103856820E+00 -5.47103859550E+00 -5.47103862410E+00 -5.47103865420E+00
 -5.47103868590E+00 -5.47103871920E+00 -5.47103875410E+00 -5.47103879090E+00
 -5.47103882960E+00 -5.47103887020E+00 -5.47103891300E+00 -5.47103895790E+00
 -5.47103900510E+00 -5.47103905480E+00 -5.47103910700E+00 -5.47103916180E+00
 -5.47103921950E+00 -5.47103928020E+00 -5.47103934390E+00 -5.47103941090E+00
 -5.47103948140E+00 -5.47103955550E+00 -5.47103963330E+00 -5.47103971520E+00
 -5.47103980120E+00 -5.47103989170E+00 -5.47103998680E+00 -5.47104008680E+00
 -5.47104019190E+00 -5.47104030240E+00 -5.47104041860E+00 -5.47104054070E+00
 -5.47104066900E+00 -5.47104080400E+00 -5.47104094590E+00 -5.47104109500E+00
 -5.47104125180E+00 -5.47104141670E+00 -5.47104159000E+00 -5.47104177220E+00
 -5.47104196370E+00 -5.47104216500E+00 -5.47104237670E+00 -5.47104259920E+00
 -5.47104283310E+00 -5.47104307900E+00 -5.47104333750E+00 -5.47104360930E+00
 -5.47104389500E+00 -5.47104419540E+00 -5.47104451120E+00 -5.47104484310E+00
 -5.47104519210E+00 -5.47104555890E+00 -5.47104594460E+00 -5.47104635000E+00
 -5.47104677630E+00 -5.47104722440E+00 -5.47104769540E+00 -5.47104819060E+00
 -5.47104871120E+00 -5.47104925850E+00 -5.47104983390E+00 -5.47105043870E+00
 -5.47105107460E+00 -5.47105174300E+00 -5.47105244580E+00 -5.47105318450E+00
 -5.47105396120E+00 -5.47105477760E+00 -5.47105563600E+00 -5.47105653830E+00
 -5.47105748690E+00 -5.47105848410E+00 -5.47105953250E+00 -5.47106063460E+00
 -5.47106179320E+00 -5.47106301120E+00 -5.47106429170E+00 -5.47106563780E+00
 -5.47106705290E+00 -5.47106854060E+00 -5.47107010450E+00 -5.47107174870E+00
 -5.47107347710E+00 -5.47107529420E+00 -5.47107720440E+00 -5.47107921260E+00
 -5.47108132370E+00 -5.47108354300E+00 -5.47108587620E+00 -5.47108832890E+00
 -5.47109090750E+00 -5.47109361820E+00 -5.47109646790E+00 -5.47109946370E+00
 -5.47110261310E+00 -5.47110592400E+00 -5.47110940460E+00 -5.47111306360E+00
 -5.47111691030E+00 -5.47112095420E+00 -5.47112520540E+00 -5.47112967460E+00
 -5.47113437290E+00 -5.47113931210E+00 -5.47114450450E+00 -5.47114996320E+00
 -5.47115570170E+00 -5.47116173440E+00 -5.47116807640E+00 -5.47117474350E+00
 -5.47118175250E+00 -5.47118912080E+00 -5.47119686690E+00 -5.47120501010E+00
 -5.47121357090E+00 -5.47122257050E+00 -5.47123203150E+00 -5.47124197750E+00
 -5.47125243350E+00 -5.47126342550E+00 -5.47127498110E+00 -5.47128712910E+00
 -5.47129989990E+00 -5.47131332540E+00 -5.47132743920E+00 -5.47134227660E+00
 -5.47135787470E+00 -5.47137427240E+00 -5.47139151080E+00 -5.47140963290E+00
 -5.47142868410E+00 -5.47144871190E+00 -5.47146976650E+00 -5.47149190040E+00
 -5.47151516900E+00 -5.47153963050E+00 -5.47156534600E+00 -5.47159237980E+00
 -5.47162079940E+00 -5.47165067590E+00 -5.47168208390E+00 -5.47171510190E+00
 -5.47174981260E+00 -5.47178630250E+00 -5.47182466300E+00 -5.47186498980E+00
 -5.47190738370E+00 -5.47195195080E+00 -5.47199880220E+00 -5.47204805520E+00
 -5.47209983280E+00 -5.47215426420E+00 -5.47221148560E+00 -5.47227163990E+00
 -5.47233487730E+00 -5.47240135590E+00 -5.47247124160E+00 -5.47254470900E+00
 -5.47262194170E+00 -5.47270313250E+00 -5.47278848420E+00 -5.47287820990E+00
 -5.47297253370E+00 -5.47307169100E+00 -5.47317592940E+00 -5.47328550920E+00
 -5.47340070380E+00 -5.47352180090E+00 -5.47364910260E+00 -5.47378292660E+00
 -5.47392360680E+00 -5.47407149430E+00 -5.47422695790E+00 -5.47439038540E+00
 -5.47456218450E+00 -5.47474278360E+00 -5.47493263300E+00 -5.47513220590E+00
 -5.47534199990E+00 -5.47556253780E+00 -5.47579436910E+00 -5.47603807140E+00
 -5.47629425180E+00 -5.47656354830E+00 -5.47684663130E+00 -5.47714420560E+00
 -5.47745701180E+00 -5.47778582820E+00 -5.47813147270E+00 -5.47849480490E+00
 -5.47887672810E+00 -5.47927819160E+00 -5.47970019290E+00 -5.48014378020E+00
 -5.48061005480E+00 -5.48110017420E+00 -5.48161535440E+00 -5.48215687310E+00
 -5.48272607290E+00 -5.48332436420E+00 -5.48395322890E+00 -5.48461422400E+00
 -5.48530898490E+00 -5.48603922990E+00 -5.48680676380E+00 -5.48761348260E+00
 -5.48846137780E+00 -5.48935254110E+00 -5.49028916950E+00 -5.49127357030E+00
 -5.49230816670E+00 -5.49339550330E+00 -5.49453825220E+00 -5.49573921920E+00
 -5.49700135020E+00 -5.49832773790E+00 -5.49972162940E+00 -5.50118643300E+00
 -5.50272572640E+00 -5.50434326470E+00 -5.50604298850E+00 -5.50782903340E+00
 -5.50970573880E+00 -5.51167765730E+00 -5.51374956520E+00 -5.51592647250E+00
 -5.51821363410E+00 -5.52061656080E+00 -5.52314103110E+00 -5.52579310340E+00
 -5.52857912870E+00 -5.53150576390E+00 -5.53457998490E+00 -5.53780910120E+00