                                                                                     
                             WELCOME TO ABACUS                                       
                                                                                     
               'Atomic-orbital Based Ab-initio Computation at UStc'                  
                                                                                     
    Version: Parallel, under ALPHA test
    Processor Number is 1
    Start Time is Wed Sep 30 16:32:53 2015
                                                                                     
 ------------------------------------------------------------------------------------

 READING GENERAL INFORMATION
                           global_out_dir = OUT.N-6-2.0/
                           global_in_card = INPUT
                               pseudo_dir = ./
                              pseudo_type = upf
                                    DRANK = 1
                                    DSIZE = 1
                                   DCOLOR = 1
                                    GRANK = 1
                                    GSIZE = 1
Open file : INPUTw




 >>>>>>>>>>>>>>>>>>>>>>>>>>>>>>>>>>>>>>>>>>>>>>>>>>>>>>>>>>>>>>>>>>>>>>
 |                                                                    |
 | Reading atom information in unitcell:                              |
 | From the input file and the structure file we know the number of   |
 | different elments in this unitcell, then we list the detail        |
 | information for each element, especially the zeta and polar atomic |
 | orbital number for each element. The total atom number is counted. |
 | We calculate the nearest atom distance for each atom and show the  |
 | Cartesian and Direct coordinates for each atom. We list the file   |
 | address for atomic orbitals and nonlocal projectors. The volume    |
 | and the lattice vectors in real and reciprocal space is also shown.|
 |                                                                    |
 <<<<<<<<<<<<<<<<<<<<<<<<<<<<<<<<<<<<<<<<<<<<<<<<<<<<<<<<<<<<<<<<<<<<<<




 READING UNITCELL INFORMATION
                                    ntype = 1
                 atom label for species 1 = N
                  lattice constant (Bohr) = 20
              lattice constant (Angstrom) = 10.5835

 READING ATOM TYPE 1
                               atom label = N
                      start magnetization = FALSE
                      L=0, number of zeta = 1
                      L=1, number of zeta = 1
                      L=2, number of zeta = 1
             number of atom for this type = 2

                        TOTAL ATOM NUMBER = 2

 Output nearest atom not considering periodic boundary condition
  TYPE INDEX       NEAREST(Bohr)   NEAREST(Angstrom)
     N     1                   0                   0
     N     2                   0                   0

 CARTESIAN COORDINATES ( UNIT = 20 Bohr ).
         atom                   x                   y                   z mag
      tauc_N1                   0                   0                   0 0
      tauc_N2                   0                   0      0.188972687778 0

 DIRECT COORDINATES
         atom                   x                   y                   z mag
      taud_N1                   0                   0                   0 0
      taud_N2                   0                   0      0.188972687778 0


                          Volume (Bohr^3) = 8000
                             Volume (A^3) = 1185.47627437

 Lattice vectors: (Cartesian coordinate: in unit of a_0)
                   +1                  +0                  +0
                   +0                  +1                  +0
                   +0                  +0                  +1
 Reciprocal vectors: (Cartesian coordinate: in unit of 2 pi/a_0)
                   +1                  +0                  +0
                   +0                  +1                  +0
                   +0                  +0                  +1




 >>>>>>>>>>>>>>>>>>>>>>>>>>>>>>>>>>>>>>>>>>>>>>>>>>>>>>>>>>>>>>>>>>>>>>
 |                                                                    |
 | Reading pseudopotentials files:                                    |
 | The pseudopotential file is in UPF format. The 'NC' indicates that |
 | the type of pseudopotential is 'norm conserving'. Functional of    |
 | exchange and correlation is decided by 4 given parameters in UPF   |
 | file.  We also read in the 'core correction' if there exists.      |
 | Also we can read the valence electrons number and the maximal      |
 | angular momentum used in this pseudopotential. We also read in the |
 | trail wave function, trail atomic density and local-pseudopotential|
 | on logrithmic grid. The non-local pseudopotential projector is also|
 | read in if there is any.                                           |
 |                                                                    |
 <<<<<<<<<<<<<<<<<<<<<<<<<<<<<<<<<<<<<<<<<<<<<<<<<<<<<<<<<<<<<<<<<<<<<<




                PAO radial cut off (Bohr) = 15

 Read in pseudopotential file is N.LDA.UPF
                     pseudopotential type = NC
                            functional Ex = SLA
                            functional Ec = PZ
                          functional GCEx = NOGX
                          functional GCEc = NOGC
                 nonlocal core correction = 0
                        valence electrons = 5
                                     lmax = 1
                           number of zeta = 2
                     number of projectors = 1
                           L of projector = 1

 SETUP THE ELECTRONS NUMBER
             electron number of element N = 5
       total electron number of element N = 10
                           occupied bands = 5
                                   NBANDS = 8
     initial pseudo atomic orbital number = 8
                                   NLOCAL = 18
 DONE : SETUP UNITCELL Time : 0.0182540416718 (SEC)





 >>>>>>>>>>>>>>>>>>>>>>>>>>>>>>>>>>>>>>>>>>>>>>>>>>>>>>>>>>>>>>>>>>>>>>
 |                                                                    |
 | Setup K-points                                                     |
 | We setup the k-points according to input parameters.               |
 | The reduced k-points are set according to symmetry operations.     |
 | We treat the spin as another set of k-points.                      |
 |                                                                    |
 <<<<<<<<<<<<<<<<<<<<<<<<<<<<<<<<<<<<<<<<<<<<<<<<<<<<<<<<<<<<<<<<<<<<<<





 SETUP K-POINTS
                                    nspin = 1
                   Input type of k points = Monkhorst-Pack(Gamma)
                                   nkstot = 1

  KPOINTS            DIRECT_X            DIRECT_Y            DIRECT_Z              WEIGHT
        1                   0                   0                   0                   1

           k-point number in this process = 1
       minimum distributed K point number = 1

  KPOINTS         CARTESIAN_X         CARTESIAN_Y         CARTESIAN_Z              WEIGHT
        1                   0                   0                   0                   2

  KPOINTS            DIRECT_X            DIRECT_Y            DIRECT_Z              WEIGHT
        1                   0                   0                   0                   2
 DONE : INIT K-POINTS Time : 0.0184509754181 (SEC)





 >>>>>>>>>>>>>>>>>>>>>>>>>>>>>>>>>>>>>>>>>>>>>>>>>>>>>>>>>>>>>>>>>>>>>>
 |                                                                    |
 | Setup plane waves:                                                 |
 | Use the energy cutoff and the lattice vectors to generate the      |
 | dimensions of FFT grid. The number of FFT grid on each processor   |
 | is 'nrxx'. The number of plane wave basis in reciprocal space is   |
 | different for charege/potential and wave functions. We also set    |
 | the 'sticks' for the parallel of FFT.                              |
 |                                                                    |
 <<<<<<<<<<<<<<<<<<<<<<<<<<<<<<<<<<<<<<<<<<<<<<<<<<<<<<<<<<<<<<<<<<<<<<





 SETUP THE PLANE WAVE BASIS
     energy cutoff for wavefunc (unit:Ry) = 50
            [fft grid for wave functions] = 96, 96, 96
          [fft grid for charge/potential] = 96, 96, 96
                      [fft grid division] = 1, 1, 1
      [big fft grid for charge/potential] = 96, 96, 96
                                     nbxx = 884736
                                     nrxx = 884736

 SETUP PLANE WAVES FOR CHARGE/POTENTIAL
                    number of plane waves = 382323
                         number of sticks = 6369

 SETUP PLANE WAVES FOR WAVE FUNCTIONS
                    number of plane waves = 47833
                         number of sticks = 1597

 PARALLEL PW FOR CHARGE/POTENTIAL
     PROC   COLUMNS(POT)             PW
        1           6369         382323
 --------------- sum -------------------
        1           6369         382323

 PARALLEL PW FOR WAVE FUNCTIONS
     PROC     COLUMNS(W)             PW
        1           1597          47833
 --------------- sum -------------------
        1           1597          47833

 SETUP COORDINATES OF PLANE WAVES
              number of total plane waves = 382323
                            number of |g| = 1691
                                  max |g| = 2026
                                  min |g| = 0
 DONE : INIT PLANEWAVE Time : 10.5522251129 (SEC)

                                     npwx = 47833

 SETUP NONLOCAL PSEUDOPOTENTIALS IN PLANE WAVE BASIS
 N non-local projectors:
 projector 1 L=1
      TOTAL NUMBER OF NONLOCAL PROJECTORS = 6
 DONE : LOCAL POTENTIAL Time : 10.6289331913 (SEC)


 Init Non-Local PseudoPotential table : 
 Init Non-Local-Pseudopotential done.
 DONE : NON-LOCAL POTENTIAL Time : 10.6439163685 (SEC)

                                start_pot = atomic
 DONE : INIT POTENTIAL Time : 10.9998 (SEC)


 Make real space PAO into reciprocal space.
       max mesh points in Pseudopotential = 967
     dq(describe PAO in reciprocal space) = 0.01
                                    max q = 712

 number of pseudo atomic orbitals for N is 2
 the unit of pseudo atomic orbital is 1, renormalize to 1
 the unit of pseudo atomic orbital is 1, renormalize to 1

 Make real space PAO into reciprocal space.
       max mesh points in Pseudopotential = 967
     dq(describe PAO in reciprocal space) = 0.01
                                    max q = 712

 number of pseudo atomic orbitals for N is 2
 the unit of pseudo atomic orbital is 1, renormalize to 1
 the unit of pseudo atomic orbital is 1, renormalize to 1
 DONE : INIT BASIS Time : 11.8699 (SEC)

 -------------------------------------------
 -------------------------------------------

 PW ALGORITHM --------------- ION=   1  ELEC=   1--------------------------------
  K-point    CG iter num      Time(Sec)
 Energy (eV) & Occupations  for spin=1 K-point=1
      1     -19.693127       1.250000
      2     -17.278010       1.250000
      3      -8.889719       1.250000
      4      -7.852995       1.250000
      5      -7.852995       1.250000
      6      -6.333653       1.250000
      7      -6.333653       1.250000
      8      -4.131495       1.250000
        1       2.000000       2.190000
 Notice: Threshold on eigenvalues was too large.
 dr2=0.023576 < diago_error=0.100000
 Origin ETHR = 0.010000
 New    ETHR = 0.002358

 Density error is 0.023575736617
                          Error Threshold = 0.002357573662

       Energy                       Rydberg                            eV
   E_KohnSham              -38.509422245448             -523.947569226048
     E_Harris              -38.908192169956             -529.373112390383
       E_band               -9.050156222311             -123.133692413589
   E_one_elec              -60.799786277481             -827.223530555944
    E_Hartree              +31.232358037673             +424.938031288446
         E_xc               -8.568406383848             -116.579149599903
      E_Ewald               -0.760093632929              -10.341604421355
      E_demet               -0.000000000000               -0.000000000000
      E_descf               +0.386506011137               +5.258684062708
     E_efield               +0.000000000000               +0.000000000000
      E_Fermi               -0.524110089774               -7.130883600218

 PW ALGORITHM --------------- ION=   1  ELEC=   2--------------------------------
  K-point    CG iter num      Time(Sec)
 Energy (eV) & Occupations  for spin=1 K-point=1
      1     -20.418067       2.000000
      2     -18.023740       2.000000
      3      -9.443756       2.000000
      4      -8.549456       2.000000
      5      -8.549456       2.000000
      6      -7.120260       0.000000
      7      -7.120260       0.000000
      8      -4.920195       0.000000
        1       3.000000       2.920000

 Density error is 0.009825705436
                          Error Threshold = 0.000235757366

       Energy                       Rydberg                            eV
   E_KohnSham              -38.900854013956             -529.273271655969
     E_Harris              -38.905546398032             -529.337114816616
       E_band               -9.552538271549             -129.968950856141
   E_one_elec              -61.367945600735             -834.953734724023
    E_Hartree              +31.521538846751             +428.872538044162
         E_xc               -8.632994352475             -117.457913995481
      E_Ewald               -0.760093632929              -10.341604421355
      E_demet               -0.000000000002               -0.000000000031
      E_descf               +0.338640725434               +4.607443440759
     E_efield               +0.000000000000               +0.000000000000
      E_Fermi               -0.581126543107               -7.906632245294

 PW ALGORITHM --------------- ION=   1  ELEC=   3--------------------------------
  K-point    CG iter num      Time(Sec)
 Energy (eV) & Occupations  for spin=1 K-point=1
      1     -20.021378       2.000000
      2     -17.638339       2.000000
      3      -9.088446       2.000000
      4      -8.192182       2.000000
      5      -8.192182       2.000000
      6      -6.738291       0.000000
      7      -6.738291       0.000000
      8      -4.506835       0.000000
        1       2.625000       2.640000

 Density error is 0.000793048521
                          Error Threshold = 0.000098257054

       Energy                       Rydberg                            eV
   E_KohnSham              -38.901475860382             -529.281732310652
     E_Harris              -38.901923649384             -529.287824792574
       E_band               -9.280307034019             -126.265054852140
   E_one_elec              -61.154406771960             -832.048389908446
    E_Hartree              +31.615896912502             +430.156345390631
         E_xc               -8.656498299638             -117.777701602382
      E_Ewald               -0.760093632929              -10.341604421355
      E_demet               -0.000000000000               -0.000000000001
      E_descf               +0.053625931643               +0.729618230901
     E_efield               +0.000000000000               +0.000000000000
      E_Fermi               -0.550994083428               -7.496659098907

 PW ALGORITHM --------------- ION=   1  ELEC=   4--------------------------------
  K-point    CG iter num      Time(Sec)
 Energy (eV) & Occupations  for spin=1 K-point=1
      1     -19.900910       2.000000
      2     -17.508118       2.000000
      3      -8.975491       2.000000
      4      -8.078193       2.000000
      5      -8.078193       2.000000
      6      -6.610754       0.000000
      7      -6.610754       0.000000
      8      -4.375213       0.000000
        1       3.125000       2.990000

 Density error is 0.001871223931
                          Error Threshold = 0.000007930485

       Energy                       Rydberg                            eV
   E_KohnSham              -38.901567079878             -529.282973415566
     E_Harris              -38.901798167122             -529.286117518814
       E_band               -9.193340125840             -125.081809363462
   E_one_elec              -61.065876851805             -830.843878550846
    E_Hartree              +31.612465348966             +430.109656573491
         E_xc               -8.655746928607             -117.767478675058
      E_Ewald               -0.760093632929              -10.341604421355
      E_demet               -0.000000000000               -0.000000000000
      E_descf               -0.032315015503               -0.439668341798
     E_efield               +0.000000000000               +0.000000000000
      E_Fermi               -0.541486546854               -7.367302427553

 PW ALGORITHM --------------- ION=   1  ELEC=   5--------------------------------
  K-point    CG iter num      Time(Sec)
 Energy (eV) & Occupations  for spin=1 K-point=1
      1     -19.905308       2.000000
      2     -17.512741       2.000000
      3      -8.980205       2.000000
      4      -8.082261       2.000000
      5      -8.082261       2.000000
      6      -6.614989       0.000000
      7      -6.614989       0.000000
      8      -4.379875       0.000000
        1       2.000000       2.190000

 Density error is 0.002595887309
                          Error Threshold = 0.000007930485

       Energy                       Rydberg                            eV
   E_KohnSham              -38.901654397314             -529.284161430225
     E_Harris              -38.901820229341             -529.286417690704
       E_band               -9.196555127718             -125.125551708084
   E_one_elec              -61.067258574153             -830.862677847843
    E_Hartree              +31.598974186167             +429.926099886788
         E_xc               -8.652795750970             -117.727325843385
      E_Ewald               -0.760093632929              -10.341604421355
      E_demet               -0.000000000000               -0.000000000000
      E_descf               -0.020480625428               -0.278653204431
     E_efield               +0.000000000000               +0.000000000000
      E_Fermi               -0.541825243975               -7.371910638299

 PW ALGORITHM --------------- ION=   1  ELEC=   6--------------------------------
  K-point    CG iter num      Time(Sec)
 Energy (eV) & Occupations  for spin=1 K-point=1
      1     -19.922282       2.000000
      2     -17.531207       2.000000
      3      -8.998591       2.000000
      4      -8.097749       2.000000
      5      -8.097749       2.000000
      6      -6.632142       0.000000
      7      -6.632142       0.000000
      8      -4.398337       0.000000
        1       2.000000       2.190000

 Density error is 0.000011176603
                          Error Threshold = 0.000007930485

       Energy                       Rydberg                            eV
   E_KohnSham              -38.901726658132             -529.285144589099
     E_Harris              -38.901732020070             -529.285217542009
       E_band               -9.209020760348             -125.295155341029
   E_one_elec              -61.072973142981             -830.940428545507
    E_Hartree              +31.583513344748             +429.715744347607
         E_xc               -8.649617269817             -117.684080388713
      E_Ewald               -0.760093632929              -10.341604421355
      E_demet               -0.000000000000               -0.000000000000
      E_descf               -0.002555957153               -0.034775581131
     E_efield               +0.000000000000               +0.000000000000
      E_Fermi               -0.543159976940               -7.390070611937

 PW ALGORITHM --------------- ION=   1  ELEC=   7--------------------------------
  K-point    CG iter num      Time(Sec)
 Energy (eV) & Occupations  for spin=1 K-point=1
      1     -19.941646       2.000000
      2     -17.552290       2.000000
      3      -9.021095       2.000000
      4      -8.115435       2.000000
      5      -8.115435       2.000000
      6      -6.650966       0.000000
      7      -6.650966       0.000000
      8      -4.419171       0.000000
        1       3.375000       3.200000

 Density error is 0.000003968777
                          Error Threshold = 0.000000111766

       Energy                       Rydberg                            eV
   E_KohnSham              -38.901729435801             -529.285182381217
     E_Harris              -38.901730912775             -529.285202476476
       E_band               -9.223473920300             -125.491800670481
   E_one_elec              -61.085063403983             -831.104924985439
    E_Hartree              +31.588503694260             +429.783641535980
         E_xc               -8.650797991762             -117.700144934922
      E_Ewald               -0.760093632929              -10.341604421355
      E_demet               -0.000000000000               -0.000000000000
      E_descf               +0.005721898613               +0.077850424520
     E_efield               +0.000000000000               +0.000000000000
      E_Fermi               -0.544669331601               -7.410606435627

 PW ALGORITHM --------------- ION=   1  ELEC=   8--------------------------------
  K-point    CG iter num      Time(Sec)
 Energy (eV) & Occupations  for spin=1 K-point=1
      1     -19.935426       2.000000
      2     -17.545379       2.000000
      3      -9.014608       2.000000
      4      -8.109544       2.000000
      5      -8.109544       2.000000
      6      -6.644456       0.000000
      7      -6.644456       0.000000
      8      -4.412347       0.000000
        1       2.000000       2.170000

 Density error is 0.000000284080
                          Error Threshold = 0.000000039688

       Energy                       Rydberg                            eV
   E_KohnSham              -38.901729639922             -529.285185158433
     E_Harris              -38.901729764056             -529.285186847360
       E_band               -9.218858414702             -125.429003495192
   E_one_elec              -61.081773449491             -831.060162858193
    E_Hartree              +31.589553588543             +429.797926080539
         E_xc               -8.651077311372             -117.703945273173
      E_Ewald               -0.760093632929              -10.341604421355
      E_demet               -0.000000000000               -0.000000000000
      E_descf               +0.001661165326               +0.022601313748
     E_efield               +0.000000000000               +0.000000000000
      E_Fermi               -0.544176751317               -7.403904537039

 PW ALGORITHM --------------- ION=   1  ELEC=   9--------------------------------
  K-point    CG iter num      Time(Sec)
 Energy (eV) & Occupations  for spin=1 K-point=1
      1     -19.934274       2.000000
      2     -17.543818       2.000000
      3      -9.013197       2.000000
      4      -8.108339       2.000000
      5      -8.108339       2.000000
      6      -6.643041       0.000000
      7      -6.643041       0.000000
      8      -4.410958       0.000000
        1       3.500000       3.290000

 Density error is 0.000000134138
                          Error Threshold = 0.000000002841

       Energy                       Rydberg                            eV
   E_KohnSham              -38.901729728646             -529.285186365577
     E_Harris              -38.901729736484             -529.285186472215
       E_band               -9.217897740395             -125.415932850691
   E_one_elec              -61.080511144389             -831.042988316189
    E_Hartree              +31.589848333949             +429.801936297513
         E_xc               -8.651154454740             -117.704994862553
      E_Ewald               -0.760093632929              -10.341604421355
      E_demet               -0.000000000000               -0.000000000000
      E_descf               +0.000181169463               +0.002464937007
     E_efield               +0.000000000000               +0.000000000000
      E_Fermi               -0.544078228617               -7.402564066938

 PW ALGORITHM --------------- ION=   1  ELEC=  10--------------------------------
  K-point    CG iter num      Time(Sec)
 Energy (eV) & Occupations  for spin=1 K-point=1
      1     -19.933959       2.000000
      2     -17.543377       2.000000
      3      -9.012782       2.000000
      4      -8.108005       2.000000
      5      -8.108005       2.000000
      6      -6.642650       0.000000
      7      -6.642650       0.000000
      8      -4.410577       0.000000
        1       2.000000       2.190000

 Density error is 0.000000029949
                          Error Threshold = 0.000000001341

       Energy                       Rydberg                            eV
   E_KohnSham              -38.901729705886             -529.285186055912
     E_Harris              -38.901729732450             -529.285186417338
       E_band               -9.217627492371             -125.412255937695
   E_one_elec              -61.080387297117             -831.041303287614
    E_Hartree              +31.589909424538             +429.802767477620
         E_xc               -8.651158200378             -117.705045824562
      E_Ewald               -0.760093632929              -10.341604421355
      E_demet               -0.000000000000               -0.000000000000
      E_descf               +0.000000000000               +0.000000000000
     E_efield               +0.000000000000               +0.000000000000
      E_Fermi               -0.544051200477               -7.402196330229
 convergence is achieved
 !FINAL_ETOT_IS -529.285186055912 eV

 STATE ENERGY(eV) AND OCCUPATIONS. 1/1 kpoint (Cartesian) = 0.00000 0.00000 0.00000 (47833 pws)
 [spin1_state]        1     -19.933959       2.000000
 [spin1_state]        2     -17.543377       2.000000
 [spin1_state]        3      -9.012782       2.000000
 [spin1_state]        4      -8.108005       2.000000
 [spin1_state]        5      -8.108005       2.000000
 [spin1_state]        6      -6.642650       0.000000
 [spin1_state]        7      -6.642650       0.000000
 [spin1_state]        8      -4.410577       0.000000



 ><><><><><><><><><><><><><><><><><><><><><><

    TOTAL-FORCE (Ry/Bohr)

 ><><><><><><><><><><><><><><><><><><><><><><

     atom              x              y              z
       N1              0              0      +0.359034
       N2              0              0      -0.359034


 ><><><><><><><><><><><><><><><><><><><><><><

    TOTAL-FORCE (eV/Angstrom)

 ><><><><><><><><><><><><><><><><><><><><><><

     atom              x              y              z
       N1              0              0      +9.231130
       N2              0              0      -9.231130
 largest force is 0, no movement is possible.
 it may converged, otherwise no movement of atom is allowed.
 end of geometry optimization
                                    istep = 1
                         update iteration = 0

 CARTESIAN COORDINATES ( UNIT = 20.000000 Bohr ).
         atom                   x                   y                   z mag
      tauc_N1      0.000000000000      0.000000000000      0.000000000000 0.000000000000
      tauc_N2      0.000000000000      0.000000000000      0.188972687778 0.000000000000

 DIRECT COORDINATES
         atom                   x                   y                   z mag
      taud_N1      0.000000000000      0.000000000000      0.000000000000 0.000000000000
      taud_N2      0.000000000000      0.000000000000      0.188972687778 0.000000000000


 ><><><><><><><><><><><><><><><><><><><><><><

 Overlap Data For Spillage Minimization

 ><><><><><><><><><><><><><><><><><><><><><><

 File name : INPUTs
                                   smooth = 1
                                    sigma = 0.100000000000
                                     ecut = 50.000000000000
                                     rcut = 6.000000000000
                                tolerence = 0.000000000001
                                    kmesh = 713
                                       dk = 0.010000000000
                                    rmesh = 605
                                       dr = 0.010000000000
                       number of k points = 1
                          number of bands = 8
                 number of local orbitals = 18
           number of eigenvalues of Jl(x) = 13
 --------------------------------------------------------
 Print the overlap matrixs Q and S for this kpoint
       ik     npw
        1   47833
 --------------------------------------------------------
 OUTPUT THE OVERLAP BETWEEN SPHERICAL BESSEL FUNCTIONS AND BLOCH WAVE FUNCTIONS
 Q = < J_mu, q | Psi_n, k > 

    ik   Type1   Atom1       L
     1       N       1       0
     1       N       1       1
     1       N       1       2
     1       N       2       0
     1       N       2       1
     1       N       2       2
 DONE : jlq3d_overlap Time : 48.676565408707 (SEC)

 OUTPUT THE OVERLAP BETWEEN SPHERICAL BESSEL FUNCTIONS
 S = < J_mu,q1 | J_nu,q2 >

    ik   Type1   Atom1      L1   Type2   Atom2      L2
     1       N       1       0       N       1       0
     1       N       1       0       N       1       1
     1       N       1       0       N       1       2
     1       N       1       1       N       1       0
     1       N       1       1       N       1       1
     1       N       1       1       N       1       2
     1       N       1       2       N       1       0
     1       N       1       2       N       1       1
     1       N       1       2       N       1       2
     1       N       1       0       N       2       0
     1       N       1       0       N       2       1
     1       N       1       0       N       2       2
     1       N       1       1       N       2       0
     1       N       1       1       N       2       1
     1       N       1       1       N       2       2
     1       N       1       2       N       2       0
     1       N       1       2       N       2       1
     1       N       1       2       N       2       2
     1       N       2       0       N       1       0
     1       N       2       0       N       1       1
     1       N       2       0       N       1       2
     1       N       2       1       N       1       0
     1       N       2       1       N       1       1
     1       N       2       1       N       1       2
     1       N       2       2       N       1       0
     1       N       2       2       N       1       1
     1       N       2       2       N       1       2
     1       N       2       0       N       2       0
     1       N       2       0       N       2       1
     1       N       2       0       N       2       2
     1       N       2       1       N       2       0
     1       N       2       1       N       2       1
     1       N       2       1       N       2       2
     1       N       2       2       N       2       0
     1       N       2       2       N       2       1
     1       N       2       2       N       2       2
 DONE : Sq_overlap Time : 86.461647510529 (SEC)


 ik=0 DONE : BASIS OVERLAP (Q and S) GENERATION. Time : 86.532768487930 (SEC)





 >>>>>>>>>>>>>>>>>>>>>>>>>>>>>>>>>>>>>>>>>>>>>>>>>>>>>>>>>>>>>>>>>>>>>>
 |                                                                    |
 | Post-processing of data:                                           |
 | DOS (density of states) and bands will be output here.             |
 | If atomic orbitals are used, Mulliken charge analysis can be done. |
 | Also the .bxsf file containing fermi surface information can be    |
 | done here.                                                         |
 |                                                                    |
 <<<<<<<<<<<<<<<<<<<<<<<<<<<<<<<<<<<<<<<<<<<<<<<<<<<<<<<<<<<<<<<<<<<<<<








  |CLASS_NAME---------|NAME---------------|TIME(Sec)-----|CALLS----|AVG------|PER%-------
  A             DC_Driv         divide_frag         10.534         1     10.53     12.17%
  B            PW_Basis              gen_pw          10.53         1     10.53     12.17%
  A             DC_Driv         solve_eachf          75.98         1     75.98     87.81%
  B            Run_Frag        frag_pw_line          75.98         1     75.98     87.80%
  E           potential            v_of_rho           1.92        11      0.17      2.22%
  C            wavefunc             wfcinit           0.83         1      0.83      0.96%
  G           Hamilt_PW            cinitcgg           8.03        11      0.73      9.28%
  H           Hamilt_PW               h_psi          25.49       293      0.09     29.45%
  I           Hamilt_PW          add_vuspsi           0.27       293      0.00      0.31%
  C                Ions         opt_ions_pw          35.45         1     35.45     40.96%
  D           electrons     self_consistent          34.97         1     34.97     40.42%
  E           electrons             c_bands          26.19        10      2.62     30.27%
  F              Hamilt               diago          26.02        10      2.60     30.07%
  G            Diago_CG                diag          18.74        10      1.87     21.66%
  E              Charge             mix_rho           2.02        10      0.20      2.33%
 ----------------------------------------------------------------------------------------

 CLASS_NAME---------|NAME---------------|MEMORY(MB)--------
                                         243.7392
         Charge_Pulay                Rrho        54.0000
         Charge_Pulay               dRrho        47.2500
         Charge_Pulay                drho        47.2500
              Use_FFT              porter        13.5000
               Charge                 rho         6.7500
               Charge            rho_save         6.7500
               Charge            rho_core         6.7500
            potential               vltot         6.7500
            potential                  vr         6.7500
            potential                 vrs         6.7500
            potential                vrs1         6.7500
            potential                vnew         6.7500
         Charge_Pulay           rho_save2         6.7500
             wavefunc                 evc         5.8390
             PW_Basis           struc_fac         5.8338
               Charge                rhog         2.9169
               Charge           rhog_save         2.9169
               Charge           rhog_core         2.9169
 ----------------------------------------------------------

 Start  Time  : Wed Sep 30 16:32:53 2015
 Finish Time  : Wed Sep 30 16:34:20 2015
 Total  Time  : 0 h 1 mins 27 secs 
