<PP_INFO>
Generated using ld1 code (maybe, or maybe not)                                  
Author: unknown    Generation date: as well                                     
Info: automatically converted from PWSCF format                                 
    0        The Pseudo was generated with a Non-Relativistic Calculation
nl pn  l   occ               Rcut            Rcut US             E pseu
*S  0  0  1.00      0.00000000000      0.00000000000      0.00000000000
*P  0  1  0.00      0.00000000000      0.00000000000      0.00000000000
</PP_INFO>


<PP_HEADER>
   0                   Version Number
  Li                   Element
   NC                  Norm - Conserving pseudopotential
    F                  Nonlinear Core Correction
SLA  PW   PBE  PBE     PBE  Exchange-Correlation functional
    1.00000000000      Z valence
    0.00000000000      Total energy
  0.0000000  0.0000000 Suggested cutoff for wfc and rho
    1                  Max angular momentum component
 1104                  Number of points in mesh
    2    1             Number of Wavefunctions, Number of Projectors
 Wavefunctions         nl  l   occ
                       *S  0  1.00
                       *P  1  0.00
</PP_HEADER>


<PP_MESH>
  <PP_R>
  6.93361398830E-05  7.02433940766E-05  7.11625195710E-05  7.20936717006E-05
  7.30370078323E-05  7.39926873921E-05  7.49608718923E-05  7.59417249582E-05
  7.69354123563E-05  7.79421020223E-05  7.89619640890E-05  7.99951709155E-05
  8.10418971164E-05  8.21023195907E-05  8.31766175525E-05  8.42649725606E-05
  8.53675685497E-05  8.64845918610E-05  8.76162312741E-05  8.87626780389E-05
  8.99241259076E-05  9.11007711675E-05  9.22928126746E-05  9.35004518867E-05
  9.47238928978E-05  9.59633424721E-05  9.72190100798E-05  9.84911079315E-05
  9.97798510149E-05  1.01085457131E-04  1.02408146929E-04  1.03748143948E-04
  1.05105674651E-04  1.06480968462E-04  1.07874257811E-04  1.09285778166E-04
  1.10715768078E-04  1.12164469218E-04  1.13632126420E-04  1.15118987722E-04
  1.16625304407E-04  1.18151331046E-04  1.19697325541E-04  1.21263549169E-04
  1.22850266625E-04  1.24457746069E-04  1.26086259168E-04  1.27736081145E-04
  1.29407490824E-04  1.31100770677E-04  1.32816206872E-04  1.34554089322E-04
  1.36314711734E-04  1.38098371656E-04  1.39905370532E-04  1.41736013748E-04
  1.43590610688E-04  1.45469474783E-04  1.47372923566E-04  1.49301278723E-04
  1.51254866152E-04  1.53234016013E-04  1.55239062787E-04  1.57270345333E-04
  1.59328206941E-04  1.61412995396E-04  1.63525063031E-04  1.65664766790E-04
  1.67832468290E-04  1.70028533876E-04  1.72253334689E-04  1.74507246726E-04
  1.76790650903E-04  1.79103933120E-04  1.81447484329E-04  1.83821700594E-04
  1.86226983164E-04  1.88663738538E-04  1.91132378532E-04  1.93633320353E-04
  1.96166986667E-04  1.98733805667E-04  2.01334211155E-04  2.03968642602E-04
  2.06637545236E-04  2.09341370107E-04  2.12080574168E-04  2.14855620351E-04
  2.17666977645E-04  2.20515121176E-04  2.23400532287E-04  2.26323698620E-04
  2.29285114197E-04  2.32285279504E-04  2.35324701576E-04  2.38403894082E-04
  2.41523377415E-04  2.44683678772E-04  2.47885332254E-04  2.51128878947E-04
  2.54414867018E-04  2.57743851808E-04  2.61116395921E-04  2.64533069328E-04
  2.67994449452E-04  2.71501121276E-04  2.75053677436E-04  2.78652718322E-04
  2.82298852181E-04  2.85992695218E-04  2.89734871700E-04  2.93526014066E-04
  2.97366763027E-04  3.01257767678E-04  3.05199685609E-04  3.09193183014E-04
  3.13238934802E-04  3.17337624716E-04  3.21489945444E-04  3.25696598737E-04
  3.29958295531E-04  3.34275756063E-04  3.38649709992E-04  3.43080896529E-04
  3.47570064554E-04  3.52117972747E-04  3.56725389715E-04  3.61393094123E-04
  3.66121874825E-04  3.70912530994E-04  3.75765872264E-04  3.80682718861E-04
  3.85663901744E-04  3.90710262744E-04  3.95822654708E-04  4.01001941643E-04
  4.06248998860E-04  4.11564713125E-04  4.16949982806E-04  4.22405718027E-04
  4.27932840819E-04  4.33532285280E-04  4.39204997730E-04  4.44951936869E-04
  4.50774073944E-04  4.56672392911E-04  4.62647890599E-04  4.68701576882E-04
  4.74834474847E-04  4.81047620968E-04  4.87342065282E-04  4.93718871565E-04
  5.00179117512E-04  5.06723894921E-04  5.13354309874E-04  5.20071482928E-04
  5.26876549299E-04  5.33770659062E-04  5.40754977336E-04  5.47830684489E-04
  5.54998976331E-04  5.62261064321E-04  5.69618175769E-04  5.77071554045E-04
  5.84622458787E-04  5.92272166116E-04  6.00021968850E-04  6.07873176726E-04
  6.15827116615E-04  6.23885132752E-04  6.32048586962E-04  6.40318858887E-04
  6.48697346224E-04  6.57185464956E-04  6.65784649596E-04  6.74496353426E-04
  6.83322048745E-04  6.92263227117E-04  7.01321399622E-04  7.10498097112E-04
  7.19794870472E-04  7.29213290879E-04  7.38754950067E-04  7.48421460600E-04
  7.58214456141E-04  7.68135591730E-04  7.78186544062E-04  7.88369011772E-04
  7.98684715722E-04  8.09135399290E-04  8.19722828665E-04  8.30448793150E-04
  8.41315105458E-04  8.52323602021E-04  8.63476143301E-04  8.74774614104E-04
  8.86220923899E-04  8.97817007140E-04  9.09564823592E-04  9.21466358664E-04
  9.33523623743E-04  9.45738656537E-04  9.58113521415E-04  9.70650309759E-04
  9.83351140314E-04  9.96218159554E-04  1.00925354203E-03  1.02245949076E-03
  1.03583823758E-03  1.04939204353E-03  1.06312319922E-03  1.07703402527E-03
  1.09112687263E-03  1.10540412304E-03  1.11986818936E-03  1.13452151608E-03
  1.14936657964E-03  1.16440588888E-03  1.17964198549E-03  1.19507744440E-03
  1.21071487425E-03  1.22655691779E-03  1.24260625236E-03  1.25886559036E-03
  1.27533767963E-03  1.29202530401E-03  1.30893128374E-03  1.32605847597E-03
  1.34340977524E-03  1.36098811396E-03  1.37879646290E-03  1.39683783174E-03
  1.41511526949E-03  1.43363186509E-03  1.45239074789E-03  1.47139508818E-03
  1.49064809774E-03  1.51015303038E-03  1.52991318248E-03  1.54993189354E-03
  1.57021254678E-03  1.59075856968E-03  1.61157343457E-03  1.63266065920E-03
  1.65402380737E-03  1.67566648950E-03  1.69759236326E-03  1.71980513416E-03
  1.74230855623E-03  1.76510643258E-03  1.78820261613E-03  1.81160101017E-03
  1.83530556910E-03  1.85932029904E-03  1.88364925853E-03  1.90829655923E-03
  1.93326636659E-03  1.95856290057E-03  1.98419043634E-03  2.01015330501E-03
  2.03645589438E-03  2.06310264965E-03  2.09009807417E-03  2.11744673024E-03
  2.14515323984E-03  2.17322228545E-03  2.20165861080E-03  2.23046702169E-03
  2.25965238682E-03  2.28921963858E-03  2.31917377391E-03  2.34951985513E-03
  2.38026301079E-03  2.41140843657E-03  2.44296139611E-03  2.47492722195E-03
  2.50731131637E-03  2.54011915237E-03  2.57335627456E-03  2.60702830008E-03
  2.64114091959E-03  2.67569989821E-03  2.71071107647E-03  2.74618037135E-03
  2.78211377726E-03  2.81851736702E-03  2.85539729291E-03  2.89275978775E-03
  2.93061116588E-03  2.96895782427E-03  3.00780624359E-03  3.04716298934E-03
  3.08703471287E-03  3.12742815263E-03  3.16835013518E-03  3.20980757645E-03
  3.25180748284E-03  3.29435695243E-03  3.33746317619E-03  3.38113343917E-03
  3.42537512175E-03  3.47019570087E-03  3.51560275133E-03  3.56160394702E-03
  3.60820706226E-03  3.65541997307E-03  3.70325065856E-03  3.75170720223E-03
  3.80079779335E-03  3.85053072833E-03  3.90091441218E-03  3.95195735984E-03
  4.00366819771E-03  4.05605566503E-03  4.10912861541E-03  4.16289601831E-03
  4.21736696054E-03  4.27255064782E-03  4.32845640634E-03  4.38509368429E-03
  4.44247205351E-03  4.50060121108E-03  4.55949098096E-03  4.61915131568E-03
  4.67959229796E-03  4.74082414248E-03  4.80285719756E-03  4.86570194693E-03
  4.92936901152E-03  4.99386915121E-03  5.05921326666E-03  5.12541240120E-03
  5.19247774263E-03  5.26042062517E-03  5.32925253130E-03  5.39898509380E-03
  5.46963009763E-03  5.54119948197E-03  5.61370534220E-03  5.68715993200E-03
  5.76157566537E-03  5.83696511873E-03  5.91334103309E-03  5.99071631617E-03
  6.06910404455E-03  6.14851746597E-03  6.22897000147E-03  6.31047524773E-03
  6.39304697932E-03  6.47669915107E-03  6.56144590039E-03  6.64730154969E-03
  6.73428060877E-03  6.82239777729E-03  6.91166794729E-03  7.00210620561E-03
  7.09372783655E-03  7.18654832438E-03  7.28058335598E-03  7.37584882349E-03
  7.47236082702E-03  7.57013567730E-03  7.66918989853E-03  7.76954023111E-03
  7.87120363449E-03  7.97419729000E-03  8.07853860384E-03  8.18424520994E-03
  8.29133497295E-03  8.39982599131E-03  8.50973660025E-03  8.62108537493E-03
  8.73389113356E-03  8.84817294058E-03  8.96395010988E-03  9.08124220809E-03
  9.20006905784E-03  9.32045074117E-03  9.44240760285E-03  9.56596025389E-03
  9.69112957498E-03  9.81793672003E-03  9.94640311976E-03  1.00765504853E-02
  1.02084008118E-02  1.03419763824E-02  1.04772997716E-02  1.06143938494E-02
  1.07532817850E-02  1.08939870509E-02  1.10365334265E-02  1.11809450025E-02
  1.13272461848E-02  1.14754616987E-02  1.16256165929E-02  1.17777362440E-02
  1.19318463605E-02  1.20879729875E-02  1.22461425107E-02  1.24063816611E-02
  1.25687175196E-02  1.27331775212E-02  1.28997894601E-02  1.30685814942E-02
  1.32395821496E-02  1.34128203259E-02  1.35883253008E-02  1.37661267350E-02
  1.39462546774E-02  1.41287395700E-02  1.43136122533E-02  1.45009039710E-02
  1.46906463761E-02  1.48828715354E-02  1.50776119353E-02  1.52749004876E-02
  1.54747705344E-02  1.56772558543E-02  1.58823906677E-02  1.60902096430E-02
  1.63007479019E-02  1.65140410261E-02  1.67301250625E-02  1.69490365298E-02
  1.71708124247E-02  1.73954902278E-02  1.76231079100E-02  1.78537039395E-02
  1.80873172874E-02  1.83239874350E-02  1.85637543801E-02  1.88066586439E-02
  1.90527412777E-02  1.93020438702E-02  1.95546085540E-02  1.98104780132E-02
  2.00696954904E-02  2.03323047938E-02  2.05983503051E-02  2.08678769867E-02
  2.11409303892E-02  2.14175566592E-02  2.16978025472E-02  2.19817154156E-02
  2.22693432461E-02  2.25607346487E-02  2.28559388691E-02  2.31550057976E-02
  2.34579859772E-02  2.37649306122E-02  2.40758915771E-02  2.43909214249E-02
  2.47100733966E-02  2.50334014294E-02  2.53609601667E-02  2.56928049666E-02
  2.60289919117E-02  2.63695778183E-02  2.67146202464E-02  2.70641775089E-02
  2.74183086818E-02  2.77770736141E-02  2.81405329380E-02  2.85087480790E-02
  2.88817812662E-02  2.92596955432E-02  2.96425547783E-02  3.00304236758E-02
  3.04233677864E-02  3.08214535185E-02  3.12247481496E-02  3.16333198375E-02
  3.20472376317E-02  3.24665714854E-02  3.28913922669E-02  3.33217717720E-02
  3.37577827358E-02  3.41994988453E-02  3.46469947514E-02  3.51003460822E-02
  3.55596294549E-02  3.60249224897E-02  3.64963038221E-02  3.69738531168E-02
  3.74576510806E-02  3.79477794766E-02  3.84443211376E-02  3.89473599805E-02
  3.94569810198E-02  3.99732703829E-02  4.04963153238E-02  4.10262042384E-02
  4.15630266791E-02  4.21068733703E-02  4.26578362233E-02  4.32160083521E-02
  4.37814840892E-02  4.43543590013E-02  4.49347299057E-02  4.55226948863E-02
  4.61183533108E-02  4.67218058467E-02  4.73331544790E-02  4.79525025271E-02
  4.85799546623E-02  4.92156169254E-02  4.98595967449E-02  5.05120029549E-02
  5.11729458136E-02  5.18425370220E-02  5.25208897425E-02  5.32081186184E-02
  5.39043397930E-02  5.46096709293E-02  5.53242312300E-02  5.60481414574E-02
  5.67815239542E-02  5.75245026636E-02  5.82772031509E-02  5.90397526242E-02
  5.98122799562E-02  6.05949157060E-02  6.13877921407E-02  6.21910432583E-02
  6.30048048103E-02  6.38292143243E-02  6.46644111274E-02  6.55105363699E-02
  6.63677330490E-02  6.72361460329E-02  6.81159220855E-02  6.90072098911E-02
  6.99101600794E-02  7.08249252512E-02  7.17516600038E-02  7.26905209578E-02
  7.36416667829E-02  7.46052582249E-02  7.55814581331E-02  7.65704314876E-02
  7.75723454273E-02  7.85873692780E-02  7.96156745812E-02  8.06574351229E-02
  8.17128269630E-02  8.27820284654E-02  8.38652203277E-02  8.49625856118E-02
  8.60743097750E-02  8.72005807015E-02  8.83415887337E-02  8.94975267046E-02
  9.06685899706E-02  9.18549764441E-02  9.30568866272E-02  9.42745236456E-02
  9.55080932829E-02  9.67578040153E-02  9.80238670469E-02  9.93064963453E-02
  1.00605908678E-01  1.01922323649E-01  1.03255963735E-01  1.04607054324E-01
  1.05975823755E-01  1.07362503352E-01  1.08767327468E-01  1.10190533521E-01
  1.11632362036E-01  1.13093056687E-01  1.14572864333E-01  1.16072035065E-01
  1.17590822248E-01  1.19129482560E-01  1.20688276038E-01  1.22267466122E-01
  1.23867319699E-01  1.25488107147E-01  1.27130102384E-01  1.28793582912E-01
  1.30478829861E-01  1.32186128043E-01  1.33915765995E-01  1.35668036030E-01
  1.37443234287E-01  1.39241660777E-01  1.41063619439E-01  1.42909418189E-01
  1.44779368970E-01  1.46673787810E-01  1.48592994868E-01  1.50537314497E-01
  1.52507075290E-01  1.54502610141E-01  1.56524256302E-01  1.58572355434E-01
  1.60647253672E-01  1.62749301678E-01  1.64878854703E-01  1.67036272648E-01
  1.69221920119E-01  1.71436166499E-01  1.73679385998E-01  1.75951957727E-01
  1.78254265755E-01  1.80586699179E-01  1.82949652185E-01  1.85343524117E-01
  1.87768719546E-01  1.90225648336E-01  1.92714725713E-01  1.95236372337E-01
  1.97791014373E-01  2.00379083561E-01  2.03001017291E-01  2.05657258676E-01
  2.08348256627E-01  2.11074465930E-01  2.13836347320E-01  2.16634367561E-01
  2.19468999526E-01  2.22340722275E-01  2.25250021134E-01  2.28197387784E-01
  2.31183320335E-01  2.34208323417E-01  2.37272908263E-01  2.40377592796E-01
  2.43522901714E-01  2.46709366582E-01  2.49937525920E-01  2.53207925295E-01
  2.56521117412E-01  2.59877662208E-01  2.63278126948E-01  2.66723086318E-01
  2.70213122524E-01  2.73748825391E-01  2.77330792462E-01  2.80959629096E-01
  2.84635948576E-01  2.88360372209E-01  2.92133529431E-01  2.95956057915E-01
  2.99828603677E-01  3.03751821187E-01  3.07726373477E-01  3.11752932258E-01
  3.15832178025E-01  3.19964800183E-01  3.24151497153E-01  3.28392976498E-01
  3.32689955037E-01  3.37043158970E-01  3.41453324000E-01  3.45921195454E-01
  3.50447528414E-01  3.55033087840E-01  3.59678648702E-01  3.64384996113E-01
  3.69152925455E-01  3.73983242520E-01  3.78876763643E-01  3.83834315841E-01
  3.88856736952E-01  3.93944875777E-01  3.99099592224E-01  4.04321757451E-01
  4.09612254018E-01  4.14971976031E-01  4.20401829295E-01  4.25902731469E-01
  4.31475612219E-01  4.37121413374E-01  4.42841089088E-01  4.48635606000E-01
  4.54505943397E-01  4.60453093381E-01  4.66478061033E-01  4.72581864588E-01
  4.78765535603E-01  4.85030119133E-01  4.91376673907E-01  4.97806272509E-01
  5.04320001556E-01  5.10918961883E-01  5.17604268731E-01  5.24377051932E-01
  5.31238456103E-01  5.38189640838E-01  5.45231780902E-01  5.52366066436E-01
  5.59593703149E-01  5.66915912530E-01  5.74333932050E-01  5.81849015371E-01
  5.89462432561E-01  5.97175470304E-01  6.04989432124E-01  6.12905638597E-01
  6.20925427582E-01  6.29050154442E-01  6.37281192276E-01  6.45619932148E-01
  6.54067783325E-01  6.62626173514E-01  6.71296549103E-01  6.80080375408E-01
  6.88979136914E-01  6.97994337534E-01  7.07127500859E-01  7.16380170414E-01
  7.25753909923E-01  7.35250303570E-01  7.44870956268E-01  7.54617493931E-01
  7.64491563747E-01  7.74494834456E-01  7.84628996636E-01  7.94895762984E-01
  8.05296868607E-01  8.15834071318E-01  8.26509151929E-01  8.37323914554E-01
  8.48280186913E-01  8.59379820642E-01  8.70624691607E-01  8.82016700217E-01
  8.93557771749E-01  9.05249856670E-01  9.17094930972E-01  9.29094996500E-01
  9.41252081294E-01  9.53568239930E-01  9.66045553868E-01  9.78686131804E-01
  9.91492110026E-01  1.00446565277E+00  1.01760895261E+00  1.03092423078E+00
  1.04441373759E+00  1.05807975282E+00  1.07192458604E+00  1.08595057707E+00
  1.10016009633E+00  1.11455554526E+00  1.12913935674E+00  1.14391399545E+00
  1.15888195835E+00  1.17404577507E+00  1.18940800831E+00  1.20497125433E+00
  1.22073814337E+00  1.23671134005E+00  1.25289354390E+00  1.26928748974E+00
  1.28589594818E+00  1.30272172610E+00  1.31976766710E+00  1.33703665197E+00
  1.35453159921E+00  1.37225546552E+00  1.39021124627E+00  1.40840197603E+00
  1.42683072908E+00  1.44550061991E+00  1.46441480379E+00  1.48357647726E+00
  1.50298887868E+00  1.52265528881E+00  1.54257903129E+00  1.56276347331E+00
  1.58321202607E+00  1.60392814544E+00  1.62491533247E+00  1.64617713407E+00
  1.66771714352E+00  1.68953900114E+00  1.71164639487E+00  1.73404306091E+00
  1.75673278436E+00  1.77971939983E+00  1.80300679211E+00  1.82659889684E+00
  1.85049970112E+00  1.87471324426E+00  1.89924361840E+00  1.92409496923E+00
  1.94927149669E+00  1.97477745567E+00  2.00061715674E+00  2.02679496688E+00
  2.05331531019E+00  2.08018266867E+00  2.10740158297E+00  2.13497665316E+00
  2.16291253948E+00  2.19121396317E+00  2.21988570724E+00  2.24893261727E+00
  2.27835960227E+00  2.30817163546E+00  2.33837375515E+00  2.36897106558E+00
  2.39996873775E+00  2.43137201035E+00  2.46318619061E+00  2.49541665520E+00
  2.52806885114E+00  2.56114829673E+00  2.59466058248E+00  2.62861137205E+00
  2.66300640319E+00  2.69785148876E+00  2.73315251764E+00  2.76891545581E+00
  2.80514634728E+00  2.84185131516E+00  2.87903656267E+00  2.91670837422E+00
  2.95487311642E+00  2.99353723922E+00  3.03270727693E+00  3.07238984939E+00
  3.11259166305E+00  3.15331951210E+00  3.19458027966E+00  3.23638093889E+00
  3.27872855420E+00  3.32163028244E+00  3.36509337411E+00  3.40912517456E+00
  3.45373312528E+00  3.49892476512E+00  3.54470773158E+00  3.59108976207E+00
  3.63807869529E+00  3.68568247246E+00  3.73390913874E+00  3.78276684456E+00
  3.83226384697E+00  3.88240851110E+00  3.93320931150E+00  3.98467483364E+00
  4.03681377531E+00  4.08963494812E+00  4.14314727896E+00  4.19735981156E+00
  4.25228170796E+00  4.30792225008E+00  4.36429084132E+00  4.42139700810E+00
  4.47925040149E+00  4.53786079887E+00  4.59723810552E+00  4.65739235635E+00
  4.71833371758E+00  4.78007248843E+00  4.84261910291E+00  4.90598413155E+00
  4.97017828318E+00  5.03521240677E+00  5.10109749324E+00  5.16784467733E+00
  5.23546523947E+00  5.30397060769E+00  5.37337235957E+00  5.44368222417E+00
  5.51491208403E+00  5.58707397715E+00  5.66018009907E+00  5.73424280490E+00
  5.80927461141E+00  5.88528819915E+00  5.96229641461E+00  6.04031227236E+00
  6.11934895725E+00  6.19941982669E+00  6.28053841283E+00  6.36271842491E+00
  6.44597375155E+00  6.53031846309E+00  6.61576681400E+00  6.70233324524E+00
  6.79003238676E+00  6.87887905991E+00  6.96888827999E+00  7.06007525878E+00
  7.15245540709E+00  7.24604433739E+00  7.34085786643E+00  7.43691201792E+00
  7.53422302524E+00  7.63280733418E+00  7.73268160573E+00  7.83386271888E+00
  7.93636777347E+00  8.04021409310E+00  8.14541922806E+00  8.25200095825E+00
  8.35997729624E+00  8.46936649029E+00  8.58018702744E+00  8.69245763661E+00
  8.80619729182E+00  8.92142521533E+00  9.03816088093E+00  9.15642401723E+00
  9.27623461099E+00  9.39761291047E+00  9.52057942891E+00  9.64515494792E+00
  9.77136052108E+00  9.89921747742E+00  1.00287474251E+01  1.01599722549E+01
  1.02929141443E+01  1.04275955606E+01  1.05640392654E+01  1.07022683179E+01
  1.08423060793E+01  1.09841762163E+01  1.11279027051E+01  1.12735098360E+01
  1.14210222169E+01  1.15704647777E+01  1.17218627746E+01  1.18752417942E+01
  1.20306277580E+01  1.21880469264E+01  1.23475259038E+01  1.25090916425E+01
  1.26727714474E+01  1.28385929809E+01  1.30065842672E+01  1.31767736971E+01
  1.33491900332E+01  1.35238624141E+01  1.37008203600E+01  1.38800937771E+01
  1.40617129631E+01  1.42457086121E+01  1.44321118197E+01  1.46209540886E+01
  1.48122673335E+01  1.50060838869E+01  1.52024365042E+01  1.54013583694E+01
  1.56028831008E+01  1.58070447566E+01  1.60138778406E+01  1.62234173080E+01
  1.64356985716E+01  1.66507575074E+01  1.68686304608E+01  1.70893542530E+01
  1.73129661866E+01  1.75395040528E+01  1.77690061369E+01  1.80015112253E+01
  1.82370586119E+01  1.84756881049E+01  1.87174400331E+01  1.89623552533E+01
  1.92104751566E+01  1.94618416760E+01  1.97164972929E+01  1.99744850447E+01
  2.02358485321E+01  2.05006319261E+01  2.07688799756E+01  2.10406380153E+01
  2.13159519729E+01  2.15948683771E+01  2.18774343655E+01  2.21636976923E+01
  2.24537067369E+01  2.27475105112E+01  2.30451586690E+01  2.33467015135E+01
  2.36521900061E+01  2.39616757751E+01  2.42752111243E+01  2.45928490420E+01
  2.49146432098E+01  2.52406480115E+01  2.55709185428E+01  2.59055106202E+01
  2.62444807905E+01  2.65878863406E+01  2.69357853067E+01  2.72882364847E+01
  2.76452994396E+01  2.80070345159E+01  2.83735028477E+01  2.87447663690E+01
  2.91208878242E+01  2.95019307788E+01  2.98879596299E+01  3.02790396173E+01
  3.06752368345E+01  3.10766182397E+01  3.14832516673E+01  3.18952058394E+01
  3.23125503773E+01  3.27353558130E+01  3.31636936018E+01  3.35976361337E+01
  3.40372567462E+01  3.44826297360E+01  3.49338303723E+01  3.53909349091E+01
  3.58540205981E+01  3.63231657019E+01  3.67984495072E+01  3.72799523381E+01
  3.77677555696E+01  3.82619416417E+01  3.87625940730E+01  3.92697974750E+01
  3.97836375662E+01  4.03042011869E+01  4.08315763134E+01  4.13658520736E+01
  4.19071187612E+01  4.24554678516E+01  4.30109920171E+01  4.35737851427E+01
  4.41439423417E+01  4.47215599719E+01  4.53067356523E+01  4.58995682788E+01
  4.65001580416E+01  4.71086064418E+01  4.77250163086E+01  4.83494918167E+01
  4.89821385041E+01  4.96230632894E+01  5.02723744905E+01  5.09301818426E+01
  5.15965965166E+01  5.22717311383E+01  5.29556998069E+01  5.36486181148E+01
  5.43506031669E+01  5.50617736002E+01  5.57822496044E+01  5.65121529415E+01
  5.72516069669E+01  5.80007366502E+01  5.87596685961E+01  5.95285310658E+01
  6.03074539989E+01  6.10965690353E+01  6.18960095372E+01  6.27059106121E+01
  6.35264091352E+01  6.43576437725E+01  6.51997550049E+01  6.60528851510E+01
  6.69171783920E+01  6.77927807953E+01  6.86798403400E+01  6.95785069411E+01
  7.04889324755E+01  7.14112708073E+01  7.23456778138E+01  7.32923114121E+01
  7.42513315854E+01  7.52229004105E+01  7.62071820848E+01  7.72043429542E+01
  7.82145515414E+01  7.92379785739E+01  8.02747970134E+01  8.13251820846E+01
  8.23893113052E+01  8.34673645155E+01  8.45595239091E+01  8.56659740634E+01
  8.67869019713E+01  8.79224970722E+01  8.90729512843E+01  9.02384590372E+01
  9.14192173045E+01  9.26154256370E+01  9.38272861970E+01  9.50550037916E+01
  9.62987859081E+01  9.75588427486E+01  9.88353872657E+01  1.00128635199E+02
  1.01438805109E+02  1.02766118419E+02  1.04110799448E+02  1.05473075449E+02
  1.06853176651E+02  1.08251336295E+02  1.09667790672E+02  1.11102779166E+02
  1.12556544295E+02  1.14029331748E+02  1.15521390429E+02  1.17032972500E+02
  </PP_R>
  <PP_RAB>
  9.01369818479E-07  9.13164122996E-07  9.25112754424E-07  9.37217732108E-07
  9.49481101820E-07  9.61904936098E-07  9.74491334599E-07  9.87242424456E-07
  1.00016036063E-06  1.01324732629E-06  1.02650553316E-06  1.03993722190E-06
  1.05354466251E-06  1.06733015468E-06  1.08129602818E-06  1.09544464329E-06
  1.10977839115E-06  1.12429969419E-06  1.13901100656E-06  1.15391481451E-06
  1.16901363680E-06  1.18431002518E-06  1.19980656477E-06  1.21550587453E-06
  1.23141060767E-06  1.24752345214E-06  1.26384713104E-06  1.28038440311E-06
  1.29713806319E-06  1.31411094270E-06  1.33130591008E-06  1.34872587133E-06
  1.36637377046E-06  1.38425259001E-06  1.40236535154E-06  1.42071511616E-06
  1.43930498501E-06  1.45813809983E-06  1.47721764346E-06  1.49654684038E-06
  1.51612895729E-06  1.53596730359E-06  1.55606523203E-06  1.57642613919E-06
  1.59705346613E-06  1.61795069890E-06  1.63912136919E-06  1.66056905489E-06
  1.68229738072E-06  1.70431001880E-06  1.72661068934E-06  1.74920316119E-06
  1.77209125254E-06  1.79527883153E-06  1.81876981691E-06  1.84256817873E-06
  1.86667793895E-06  1.89110317218E-06  1.91584800635E-06  1.94091662340E-06
  1.96631325997E-06  1.99204220816E-06  2.01810781623E-06  2.04451448933E-06
  2.07126669023E-06  2.09836894014E-06  2.12582581940E-06  2.15364196827E-06
  2.18182208777E-06  2.21037094039E-06  2.23929335096E-06  2.26859420744E-06
  2.29827846174E-06  2.32835113056E-06  2.35881729627E-06  2.38968210772E-06
  2.42095078113E-06  2.45262860099E-06  2.48472092092E-06  2.51723316459E-06
  2.55017082666E-06  2.58353947368E-06  2.61734474501E-06  2.65159235383E-06
  2.68628808807E-06  2.72143781140E-06  2.75704746419E-06  2.79312306456E-06
  2.82967070938E-06  2.86669657528E-06  2.90420691973E-06  2.94220808206E-06
  2.98070648456E-06  3.01970863355E-06  3.05922112049E-06  3.09925062307E-06
  3.13980390639E-06  3.18088782404E-06  3.22250931930E-06  3.26467542631E-06
  3.30739327124E-06  3.35067007350E-06  3.39451314698E-06  3.43892990126E-06
  3.48392784288E-06  3.52951457659E-06  3.57569780667E-06  3.62248533819E-06
  3.66988507835E-06  3.71790503783E-06  3.76655333210E-06  3.81583818286E-06
  3.86576791935E-06  3.91635097982E-06  3.96759591292E-06  4.01951137918E-06
  4.07210615243E-06  4.12538912131E-06  4.17936929077E-06  4.23405578358E-06
  4.28945784191E-06  4.34558482881E-06  4.40244622990E-06  4.46005165488E-06
  4.51841083920E-06  4.57753364571E-06  4.63743006629E-06  4.69811022360E-06
  4.75958437272E-06  4.82186290292E-06  4.88495633944E-06  4.94887534520E-06
  5.01363072267E-06  5.07923341567E-06  5.14569451120E-06  5.21302524135E-06
  5.28123698518E-06  5.35034127063E-06  5.42034977648E-06  5.49127433435E-06
  5.56312693065E-06  5.63591970865E-06  5.70966497048E-06  5.78437517929E-06
  5.86006296127E-06  5.93674110784E-06  6.01442257779E-06  6.09312049946E-06
  6.17284817300E-06  6.25361907258E-06  6.33544684866E-06  6.41834533034E-06
  6.50232852766E-06  6.58741063398E-06  6.67360602837E-06  6.76092927806E-06
  6.84939514089E-06  6.93901856780E-06  7.02981470537E-06  7.12179889836E-06
  7.21498669230E-06  7.30939383618E-06  7.40503628500E-06  7.50193020259E-06
  7.60009196423E-06  7.69953815950E-06  7.80028559505E-06  7.90235129743E-06
  8.00575251599E-06  8.11050672578E-06  8.21663163050E-06  8.32414516553E-06
  8.43306550091E-06  8.54341104443E-06  8.65520044474E-06  8.76845259453E-06
  8.88318663368E-06  8.99942195252E-06  9.11717819508E-06  9.23647526246E-06
  9.35733331614E-06  9.47977278142E-06  9.60381435087E-06  9.72947898780E-06
  9.85678792984E-06  9.98576269249E-06  1.01164250728E-05  1.02487971530E-05
  1.03829013044E-05  1.05187601908E-05  1.06563967727E-05  1.07958343110E-05
  1.09370963710E-05  1.10802068263E-05  1.12251898629E-05  1.13720699834E-05
  1.15208720107E-05  1.16716210928E-05  1.18243427067E-05  1.19790626626E-05
  1.21358071087E-05  1.22946025350E-05  1.24554757784E-05  1.26184540269E-05
  1.27835648241E-05  1.29508360742E-05  1.31202960464E-05  1.32919733799E-05
  1.34658970885E-05  1.36420965658E-05  1.38206015899E-05  1.40014423285E-05
  1.41846493443E-05  1.43702535995E-05  1.45582864617E-05  1.47487797091E-05
  1.49417655353E-05  1.51372765554E-05  1.53353458114E-05  1.55360067772E-05
  1.57392933652E-05  1.59452399312E-05  1.61538812807E-05  1.63652526746E-05
  1.65793898352E-05  1.67963289521E-05  1.70161066886E-05  1.72387601876E-05
  1.74643270781E-05  1.76928454814E-05  1.79243540178E-05  1.81588918126E-05
  1.83964985034E-05  1.86372142462E-05  1.88810797225E-05  1.91281361463E-05
  1.93784252706E-05  1.96319893949E-05  1.98888713722E-05  2.01491146160E-05
  2.04127631082E-05  2.06798614059E-05  2.09504546494E-05  2.12245885696E-05
  2.15023094958E-05  2.17836643635E-05  2.20687007223E-05  2.23574667441E-05
  2.26500112309E-05  2.29463836236E-05  2.32466340097E-05  2.35508131323E-05
  2.38589723983E-05  2.41711638875E-05  2.44874403609E-05  2.48078552700E-05
  2.51324627657E-05  2.54613177074E-05  2.57944756724E-05  2.61319929652E-05
  2.64739266270E-05  2.68203344454E-05  2.71712749642E-05  2.75268074931E-05
  2.78869921179E-05  2.82518897109E-05  2.86215619404E-05  2.89960712820E-05
  2.93754810287E-05  2.97598553016E-05  3.01492590609E-05  3.05437581167E-05
  3.09434191403E-05  3.13483096754E-05  3.17584981495E-05  3.21740538853E-05
  3.25950471128E-05  3.30215489809E-05  3.34536315693E-05  3.38913679011E-05
  3.43348319547E-05  3.47840986767E-05  3.52392439941E-05  3.57003448276E-05
  3.61674791044E-05  3.66407257712E-05  3.71201648079E-05  3.76058772408E-05
  3.80979451564E-05  3.85964517155E-05  3.91014811667E-05  3.96131188614E-05
  4.01314512674E-05  4.06565659842E-05  4.11885517574E-05  4.17274984939E-05
  4.22734972769E-05  4.28266403816E-05  4.33870212905E-05  4.39547347092E-05
  4.45298765827E-05  4.51125441113E-05  4.57028357673E-05  4.63008513113E-05
  4.69066918093E-05  4.75204596499E-05  4.81422585613E-05  4.87721936290E-05
  4.94103713135E-05  5.00568994683E-05  5.07118873583E-05  5.13754456780E-05
  5.20476865702E-05  5.27287236454E-05  5.34186720003E-05  5.41176482380E-05
  5.48257704870E-05  5.55431584217E-05  5.62699332824E-05  5.70062178958E-05
  5.77521366956E-05  5.85078157440E-05  5.92733827525E-05  6.00489671038E-05
  6.08346998735E-05  6.16307138522E-05  6.24371435682E-05  6.32541253101E-05
  6.40817971498E-05  6.49202989657E-05  6.57697724666E-05  6.66303612156E-05
  6.75022106543E-05  6.83854681272E-05  6.92802829069E-05  7.01868062194E-05
  7.11051912692E-05  7.20355932656E-05  7.29781694486E-05  7.39330791160E-05
  7.49004836498E-05  7.58805465435E-05  7.68734334302E-05  7.78793121101E-05
  7.88983525792E-05  7.99307270576E-05  8.09766100191E-05  8.20361782205E-05
  8.31096107312E-05  8.41970889639E-05  8.52987967051E-05  8.64149201459E-05
  8.75456479140E-05  8.86911711048E-05  8.98516833147E-05  9.10273806730E-05
  9.22184618752E-05  9.34251282169E-05  9.46475836277E-05  9.58860347054E-05
  9.71406907512E-05  9.84117638049E-05  9.96994686810E-05  1.01004023004E-04
  1.02325647248E-04  1.03664564770E-04  1.05021001850E-04  1.06395187729E-04
  1.07787354648E-04  1.09197737887E-04  1.10626575803E-04  1.12074109874E-04
  1.13540584736E-04  1.15026248227E-04  1.16531351428E-04  1.18056148705E-04
  1.19600897752E-04  1.21165859635E-04  1.22751298837E-04  1.24357483301E-04
  1.25984684475E-04  1.27633177360E-04  1.29303240557E-04  1.30995156309E-04
  1.32709210554E-04  1.34445692971E-04  1.36204897031E-04  1.37987120042E-04