<PP_INFO>
Generated using ld1 code (maybe, or maybe not)                                  
Author: unknown    Generation date: as well                                     
Info: automatically converted from PWSCF format                                 
    0        The Pseudo was generated with a Non-Relativistic Calculation
nl pn  l   occ               Rcut            Rcut US             E pseu
*S  0  0  2.00      0.00000000000      0.00000000000      0.00000000000
*P  0  1  1.00      0.00000000000      0.00000000000      0.00000000000
</PP_INFO>


<PP_HEADER>
   0                   Version Number
  B                    Element
   NC                  Norm - Conserving pseudopotential
    F                  Nonlinear Core Correction
SLA  PW   PBE  PBE     PBE  Exchange-Correlation functional
    3.00000000000      Z valence
    0.00000000000      Total energy
  0.0000000  0.0000000 Suggested cutoff for wfc and rho
    1                  Max angular momentum component
 1118                  Number of points in mesh
    2    1             Number of Wavefunctions, Number of Projectors
 Wavefunctions         nl  l   occ
                       *S  0  2.00
                       *P  1  1.00
</PP_HEADER>


<PP_MESH>
  <PP_R>
  5.84803409446E-05  5.92455484490E-05  6.00207685921E-05  6.08061323880E-05
  6.16017725649E-05  6.24078235881E-05  6.32244216819E-05  6.40517048535E-05
  6.48898129157E-05  6.57388875107E-05  6.65990721342E-05  6.74705121593E-05
  6.83533548617E-05  6.92477494436E-05  7.01538470600E-05  7.10718008436E-05
  7.20017659307E-05  7.29438994875E-05  7.38983607370E-05  7.48653109854E-05
  7.58449136495E-05  7.68373342845E-05  7.78427406119E-05  7.88613025477E-05
  7.98931922314E-05  8.09385840547E-05  8.19976546913E-05  8.30705831268E-05
  8.41575506885E-05  8.52587410766E-05  8.63743403949E-05  8.75045371822E-05
  8.86495224446E-05  8.98094896873E-05  9.09846349475E-05  9.21751568276E-05
  9.33812565286E-05  9.46031378841E-05  9.58410073952E-05  9.70950742646E-05
  9.83655504326E-05  9.96526506128E-05  1.00956592328E-04  1.02277595948E-04
  1.03615884725E-04  1.04971684833E-04  1.06345225405E-04  1.07736738574E-04
  1.09146459508E-04  1.10574626453E-04  1.12021480774E-04  1.13487266991E-04
  1.14972232827E-04  1.16476629244E-04  1.18000710488E-04  1.19544734133E-04
  1.21108961123E-04  1.22693655815E-04  1.24299086027E-04  1.25925523081E-04
  1.27573241847E-04  1.29242520796E-04  1.30933642038E-04  1.32646891377E-04
  1.34382558356E-04  1.36140936307E-04  1.37922322401E-04  1.39727017696E-04
  1.41555327189E-04  1.43407559869E-04  1.45284028769E-04  1.47185051015E-04
  1.49110947884E-04  1.51062044859E-04  1.53038671680E-04  1.55041162399E-04
  1.57069855445E-04  1.59125093669E-04  1.61207224414E-04  1.63316599563E-04
  1.65453575605E-04  1.67618513696E-04  1.69811779715E-04  1.72033744329E-04
  1.74284783055E-04  1.76565276324E-04  1.78875609545E-04  1.81216173170E-04
  1.83587362759E-04  1.85989579050E-04  1.88423228022E-04  1.90888720968E-04
  1.93386474563E-04  1.95916910931E-04  1.98480457725E-04  2.01077548187E-04
  2.03708621234E-04  2.06374121523E-04  2.09074499530E-04  2.11810211625E-04
  2.14581720149E-04  2.17389493495E-04  2.20234006183E-04  2.23115738942E-04
  2.26035178792E-04  2.28992819125E-04  2.31989159790E-04  2.35024707174E-04
  2.38099974294E-04  2.41215480876E-04  2.44371753449E-04  2.47569325429E-04
  2.50808737214E-04  2.54090536274E-04  2.57415277238E-04  2.60783521997E-04
  2.64195839792E-04  2.67652807313E-04  2.71155008795E-04  2.74703036119E-04
  2.78297488910E-04  2.81938974639E-04  2.85628108726E-04  2.89365514643E-04
  2.93151824020E-04  2.96987676754E-04  3.00873721112E-04  3.04810613844E-04
  3.08799020296E-04  3.12839614518E-04  3.16933079379E-04  3.21080106684E-04
  3.25281397292E-04  3.29537661230E-04  3.33849617818E-04  3.38217995785E-04
  3.42643533398E-04  3.47126978585E-04  3.51669089056E-04  3.56270632441E-04
  3.60932386411E-04  3.65655138813E-04  3.70439687804E-04  3.75286841983E-04
  3.80197420533E-04  3.85172253351E-04  3.90212181197E-04  3.95318055830E-04
  4.00490740155E-04  4.05731108369E-04  4.11040046106E-04  4.16418450589E-04
  4.21867230781E-04  4.27387307539E-04  4.32979613769E-04  4.38645094585E-04
  4.44384707466E-04  4.50199422420E-04  4.56090222147E-04  4.62058102208E-04
  4.68104071188E-04  4.74229150870E-04  4.80434376408E-04  4.86720796498E-04
  4.93089473562E-04  4.99541483920E-04  5.06077917977E-04  5.12699880408E-04
  5.19408490338E-04  5.26204881540E-04  5.33090202619E-04  5.40065617211E-04
  5.47132304178E-04  5.54291457806E-04  5.61544288010E-04  5.68892020536E-04
  5.76335897167E-04  5.83877175936E-04  5.91517131337E-04  5.99257054542E-04
  6.07098253615E-04  6.15042053738E-04  6.23089797432E-04  6.31242844784E-04
  6.39502573680E-04  6.47870380033E-04  6.56347678022E-04  6.64935900331E-04
  6.73636498390E-04  6.82450942620E-04  6.91380722683E-04  7.00427347735E-04
  7.09592346675E-04  7.18877268411E-04  7.28283682116E-04  7.37813177497E-04
  7.47467365061E-04  7.57247876388E-04  7.67156364409E-04  7.77194503682E-04
  7.87363990675E-04  7.97666544057E-04  8.08103904984E-04  8.18677837393E-04
  8.29390128306E-04  8.40242588124E-04  8.51237050940E-04  8.62375374843E-04
  8.73659442238E-04  8.85091160157E-04  8.96672460589E-04  9.08405300801E-04
  9.20291663671E-04  9.32333558022E-04  9.44533018964E-04  9.56892108234E-04
  9.69412914548E-04  9.82097553952E-04  9.94948170180E-04  1.00796693502E-03
  1.02115604866E-03  1.03451774011E-03  1.04805426753E-03  1.06176791860E-03
  1.07566101098E-03  1.08973589264E-03  1.10399494225E-03  1.11844056963E-03
  1.13307521614E-03  1.14790135505E-03  1.16292149202E-03  1.17813816550E-03
  1.19355394712E-03  1.20917144221E-03  1.22499329014E-03  1.24102216486E-03
  1.25726077528E-03  1.27371186576E-03  1.29037821658E-03  1.30726264439E-03
  1.32436800269E-03  1.34169718234E-03  1.35925311201E-03  1.37703875869E-03
  1.39505712820E-03  1.41331126568E-03  1.43180425613E-03  1.45053922491E-03
  1.46951933826E-03  1.48874780389E-03  1.50822787143E-03  1.52796283308E-03
  1.54795602408E-03  1.56821082334E-03  1.58873065395E-03  1.60951898383E-03
  1.63057932625E-03  1.65191524045E-03  1.67353033226E-03  1.69542825468E-03
  1.71761270851E-03  1.74008744298E-03  1.76285625636E-03  1.78592299665E-03
  1.80929156218E-03  1.83296590228E-03  1.85695001799E-03  1.88124796267E-03
  1.90586384273E-03  1.93080181832E-03  1.95606610401E-03  1.98166096953E-03
  2.00759074047E-03  2.03385979902E-03  2.06047258472E-03  2.08743359519E-03
  2.11474738690E-03  2.14241857596E-03  2.17045183886E-03  2.19885191328E-03
  2.22762359891E-03  2.25677175823E-03  2.28630131734E-03  2.31621726683E-03
  2.34652466254E-03  2.37722862650E-03  2.40833434777E-03  2.43984708326E-03
  2.47177215873E-03  2.50411496957E-03  2.53688098180E-03  2.57007573295E-03
  2.60370483302E-03  2.63777396541E-03  2.67228888787E-03  2.70725543351E-03
  2.74267951177E-03  2.77856710939E-03  2.81492429147E-03  2.85175720245E-03
  2.88907206719E-03  2.92687519198E-03  2.96517296565E-03  3.00397186060E-03
  3.04327843395E-03  3.08309932860E-03  3.12344127437E-03  3.16431108915E-03
  3.20571568004E-03  3.24766204450E-03  3.29015727158E-03  3.33320854308E-03
  3.37682313475E-03  3.42100841756E-03  3.46577185894E-03  3.51112102401E-03
  3.55706357690E-03  3.60360728199E-03  3.65076000529E-03  3.69852971573E-03
  3.74692448648E-03  3.79595249640E-03  3.84562203131E-03  3.89594148551E-03
  3.94691936309E-03  3.99856427944E-03  4.05088496266E-03  4.10389025509E-03
  4.15758911474E-03  4.21199061684E-03  4.26710395538E-03  4.32293844465E-03
  4.37950352080E-03  4.43680874347E-03  4.49486379738E-03  4.55367849397E-03
  4.61326277306E-03  4.67362670454E-03  4.73478049006E-03  4.79673446475E-03
  4.85949909898E-03  4.92308500013E-03  4.98750291436E-03  5.05276372845E-03
  5.11887847164E-03  5.18585831747E-03  5.25371458570E-03  5.32245874420E-03
  5.39210241089E-03  5.46265735573E-03  5.53413550266E-03  5.60654893167E-03
  5.67990988078E-03  5.75423074819E-03  5.82952409429E-03  5.90580264383E-03
  5.98307928808E-03  6.06136708697E-03  6.14067927132E-03  6.22102924508E-03
  6.30243058760E-03  6.38489705588E-03  6.46844258696E-03  6.55308130024E-03
  6.63882749985E-03  6.72569567711E-03  6.81370051295E-03  6.90285688039E-03
  6.99317984707E-03  7.08468467779E-03  7.17738683709E-03  7.27130199184E-03
  7.36644601394E-03  7.46283498294E-03  7.56048518882E-03  7.65941313470E-03
  7.75963553962E-03  7.86116934141E-03  7.96403169954E-03  8.06823999798E-03
  8.17381184818E-03  8.28076509204E-03  8.38911780490E-03  8.49888829865E-03
  8.61009512474E-03  8.72275707740E-03  8.83689319677E-03  8.95252277212E-03
  9.06966534513E-03  9.18834071317E-03  9.30856893266E-03  9.43037032245E-03
  9.55376546728E-03  9.67877522120E-03  9.80542071118E-03  9.93372334059E-03
  1.00637047929E-02  1.01953870353E-02  1.03287923223E-02  1.04639431998E-02
  1.06008625086E-02  1.07395733885E-02  1.08800992818E-02  1.10224639377E-02
  1.11666914163E-02  1.13128060924E-02  1.14608326595E-02  1.16107961347E-02
  1.17627218621E-02  1.19166355174E-02  1.20725631126E-02  1.22305309996E-02
  1.23905658755E-02  1.25526947865E-02  1.27169451327E-02  1.28833446730E-02
  1.30519215292E-02  1.32227041912E-02  1.33957215217E-02  1.35710027610E-02
  1.37485775321E-02  1.39284758455E-02  1.41107281044E-02  1.42953651100E-02
  1.44824180663E-02  1.46719185858E-02  1.48638986944E-02  1.50583908373E-02
  1.52554278840E-02  1.54550431344E-02  1.56572703239E-02  1.58621436293E-02
  1.60696976747E-02  1.62799675373E-02  1.64929887531E-02  1.67087973233E-02
  1.69274297200E-02  1.71489228927E-02  1.73733142741E-02  1.76006417870E-02
  1.78309438502E-02  1.80642593854E-02  1.83006278234E-02  1.85400891111E-02
  1.87826837179E-02  1.90284526430E-02  1.92774374219E-02  1.95296801336E-02
  1.97852234078E-02  2.00441104317E-02  2.03063849581E-02  2.05720913118E-02
  2.08412743979E-02  2.11139797090E-02  2.13902533330E-02  2.16701419606E-02
  2.19536928939E-02  2.22409540534E-02  2.25319739872E-02  2.28268018781E-02
  2.31254875530E-02  2.34280814902E-02  2.37346348290E-02  2.40451993776E-02
  2.43598276221E-02  2.46785727354E-02  2.50014885863E-02  2.53286297483E-02
  2.56600515089E-02  2.59958098794E-02  2.63359616035E-02  2.66805641679E-02
  2.70296758111E-02  2.73833555339E-02  2.77416631089E-02  2.81046590911E-02
  2.84724048275E-02  2.88449624680E-02  2.92223949759E-02  2.96047661381E-02
  2.99921405763E-02  3.03845837575E-02  3.07821620058E-02  3.11849425127E-02
  3.15929933491E-02  3.20063834766E-02  3.24251827590E-02  3.28494619745E-02
  3.32792928273E-02  3.37147479598E-02  3.41559009649E-02  3.46028263986E-02
  3.50555997923E-02  3.55142976658E-02  3.59789975401E-02  3.64497779507E-02
  3.69267184605E-02  3.74098996735E-02  3.78994032487E-02  3.83953119132E-02
  3.88977094769E-02  3.94066808460E-02  3.99223120379E-02  4.04446901956E-02
  4.09739036023E-02  4.15100416961E-02  4.20531950858E-02  4.26034555656E-02
  4.31609161307E-02  4.37256709934E-02  4.42978155986E-02  4.48774466400E-02
  4.54646620767E-02  4.60595611496E-02  4.66622443979E-02  4.72728136765E-02
  4.78913721732E-02  4.85180244258E-02  4.91528763399E-02  4.97960352072E-02
  5.04476097229E-02  5.11077100048E-02  5.17764476113E-02  5.24539355606E-02
  5.31402883499E-02  5.38356219744E-02  5.45400539472E-02  5.52537033189E-02
  5.59766906980E-02  5.67091382710E-02  5.74511698234E-02  5.82029107602E-02
  5.89644881274E-02  5.97360306335E-02  6.05176686709E-02  6.13095343384E-02
  6.21117614631E-02  6.29244856234E-02  6.37478441714E-02  6.45819762569E-02
  6.54270228500E-02  6.62831267658E-02  6.71504326877E-02  6.80290871926E-02
  6.89192387751E-02  6.98210378730E-02  7.07346368925E-02  7.16601902340E-02
  7.25978543182E-02  7.35477876125E-02  7.45101506581E-02  7.54851060964E-02
  7.64728186973E-02  7.74734553866E-02  7.84871852742E-02  7.95141796830E-02
  8.05546121774E-02  8.16086585929E-02  8.26764970660E-02  8.37583080639E-02
  8.48542744152E-02  8.59645813408E-02  8.70894164853E-02  8.82289699485E-02
  8.93834343175E-02  9.05530046997E-02  9.17378787553E-02  9.29382567307E-02
  9.41543414926E-02  9.53863385624E-02  9.66344561504E-02  9.78989051916E-02
  9.91798993807E-02  1.00477655209E-01  1.01792392000E-01  1.03124331947E-01
  1.04473700152E-01  1.05840724662E-01  1.07225636505E-01  1.08628669736E-01
  1.10050061471E-01  1.11490051929E-01  1.12948884470E-01  1.14426805642E-01
  1.15924065216E-01  1.17440916233E-01  1.18977615045E-01  1.20534421356E-01
  1.22111598272E-01  1.23709412338E-01  1.25328133590E-01  1.26968035595E-01
  1.28629395499E-01  1.30312494078E-01  1.32017615778E-01  1.33745048770E-01
  1.35495084993E-01  1.37268020208E-01  1.39064154045E-01  1.40883790055E-01
  1.42727235761E-01  1.44594802710E-01  1.46486806524E-01  1.48403566958E-01
  1.50345407947E-01  1.52312657668E-01  1.54305648591E-01  1.56324717536E-01
  1.58370205730E-01  1.60442458866E-01  1.62541827159E-01  1.64668665407E-01
  1.66823333053E-01  1.69006194238E-01  1.71217617873E-01  1.73457977692E-01
  1.75727652323E-01  1.78027025345E-01  1.80356485358E-01  1.82716426046E-01
  1.85107246246E-01  1.87529350010E-01  1.89983146681E-01  1.92469050956E-01
  1.94987482959E-01  1.97538868310E-01  2.00123638200E-01  2.02742229462E-01
  2.05395084642E-01  2.08082652081E-01  2.10805385984E-01  2.13563746498E-01
  2.16358199794E-01  2.19189218140E-01  2.22057279986E-01  2.24962870041E-01
  2.27906479357E-01  2.30888605409E-01  2.33909752186E-01  2.36970430268E-01
  2.40071156916E-01  2.43212456161E-01  2.46394858890E-01  2.49618902937E-01
  2.52885133172E-01  2.56194101597E-01  2.59546367435E-01  2.62942497227E-01
  2.66383064926E-01  2.69868651997E-01  2.73399847513E-01  2.76977248254E-01
  2.80601458809E-01  2.84273091679E-01  2.87992767378E-01  2.91761114539E-01
  2.95578770024E-01  2.99446379024E-01  3.03364595175E-01  3.07334080664E-01
  3.11355506345E-01  3.15429551847E-01  3.19556905694E-01  3.23738265419E-01
  3.27974337682E-01  3.32265838388E-01  3.36613492811E-01  3.41018035716E-01
  3.45480211481E-01  3.50000774223E-01  3.54580487930E-01  3.59220126583E-01
  3.63920474292E-01  3.68682325428E-01  3.73506484754E-01  3.78393767565E-01
  3.83344999823E-01  3.88361018299E-01  3.93442670711E-01  3.98590815871E-01
  4.03806323828E-01  4.09090076014E-01  4.14442965397E-01  4.19865896627E-01
  4.25359786194E-01  4.30925562576E-01  4.36564166404E-01  4.42276550616E-01
  4.48063680617E-01  4.53926534447E-01  4.59866102941E-01  4.65883389901E-01
  4.71979412263E-01  4.78155200269E-01  4.84411797642E-01  4.90750261762E-01
  4.97171663844E-01  5.03677089120E-01  5.10267637024E-01  5.16944421372E-01
  5.23708570558E-01  5.30561227739E-01  5.37503551030E-01  5.44536713701E-01
  5.51661904372E-01  5.58880327218E-01  5.66193202170E-01  5.73601765121E-01
  5.81107268135E-01  5.88710979660E-01  5.96414184742E-01  6.04218185241E-01
  6.12124300051E-01  6.20133865325E-01  6.28248234698E-01  6.36468779518E-01
  6.44796889077E-01  6.53233970844E-01  6.61781450708E-01  6.70440773212E-01
  6.79213401802E-01  6.88100819073E-01  6.97104527021E-01  7.06226047293E-01
  7.15466921448E-01  7.24828711215E-01  7.34312998760E-01  7.43921386949E-01
  7.53655499624E-01  7.63516981871E-01  7.73507500306E-01  7.83628743349E-01
  7.93882421516E-01  8.04270267700E-01  8.14794037475E-01  8.25455509381E-01
  8.36256485232E-01  8.47198790420E-01  8.58284274220E-01  8.69514810105E-01
  8.80892296063E-01  8.92418654915E-01  9.04095834644E-01  9.15925808721E-01
  9.27910576440E-01  9.40052163254E-01  9.52352621122E-01  9.64814028849E-01
  9.77438492443E-01  9.90228145469E-01  1.00318514941E+00  1.01631169403E+00
  1.02960999774E+00  1.04308230799E+00  1.05673090164E+00  1.07055808532E+00
  1.08456619587E+00  1.09875760068E+00  1.11313469815E+00  1.12769991803E+00
  1.14245572188E+00  1.15740460346E+00  1.17254908918E+00  1.18789173848E+00
  1.20343514432E+00  1.21918193356E+00  1.23513476745E+00  1.25129634205E+00
  1.26766938871E+00  1.28425667452E+00  1.30106100276E+00  1.31808521341E+00
  1.33533218360E+00  1.35280482810E+00  1.37050609984E+00  1.38843899037E+00
  1.40660653040E+00  1.42501179028E+00  1.44365788054E+00  1.46254795242E+00
  1.48168519838E+00  1.50107285267E+00  1.52071419185E+00  1.54061253534E+00
  1.56077124602E+00  1.58119373075E+00  1.60188344099E+00  1.62284387334E+00
  1.64407857017E+00  1.66559112019E+00  1.68738515907E+00  1.70946437006E+00
  1.73183248460E+00  1.75449328295E+00  1.77745059484E+00  1.80070830012E+00
  1.82427032938E+00  1.84814066467E+00  1.87232334012E+00  1.89682244269E+00
  1.92164211275E+00  1.94678654491E+00  1.97225998863E+00  1.99806674898E+00
  2.02421118737E+00  2.05069772226E+00  2.07753082995E+00  2.10471504530E+00
  2.13225496250E+00  2.16015523586E+00  2.18842058059E+00  2.21705577362E+00
  2.24606565435E+00  2.27545512551E+00  2.30522915402E+00  2.33539277173E+00
  2.36595107638E+00  2.39690923240E+00  2.42827247177E+00  2.46004609498E+00
  2.49223547183E+00  2.52484604241E+00  2.55788331798E+00  2.59135288192E+00
  2.62526039066E+00  2.65961157466E+00  2.69441223934E+00  2.72966826610E+00
  2.76538561330E+00  2.80157031725E+00  2.83822849325E+00  2.87536633662E+00
  2.91299012375E+00  2.95110621314E+00  2.98972104650E+00  3.02884114984E+00
  3.06847313454E+00  3.10862369850E+00  3.14929962727E+00  3.19050779517E+00
  3.23225516648E+00  3.27454879660E+00  3.31739583327E+00  3.36080351773E+00
  3.40477918598E+00  3.44933027002E+00  3.49446429908E+00  3.54018890093E+00
  3.58651180312E+00  3.63344083435E+00  3.68098392573E+00  3.72914911215E+00
  3.77794453365E+00  3.82737843676E+00  3.87745917595E+00  3.92819521496E+00
  3.97959512831E+00  4.03166760271E+00  4.08442143853E+00  4.13786555129E+00
  4.19200897318E+00  4.24686085457E+00  4.30243046555E+00  4.35872719751E+00
  4.41576056475E+00  4.47354020603E+00  4.53207588626E+00  4.59137749809E+00
  4.65145506365E+00  4.71231873619E+00  4.77397880181E+00  4.83644568121E+00
  4.89972993144E+00  4.96384224770E+00  5.02879346510E+00  5.09459456057E+00
  5.16125665465E+00  5.22879101339E+00  5.29720905025E+00  5.36652232805E+00
  5.43674256089E+00  5.50788161617E+00  5.57995151655E+00  5.65296444202E+00
  5.72693273194E+00  5.80186888711E+00  5.87778557194E+00  5.95469561652E+00
  6.03261201883E+00  6.11154794693E+00  6.19151674118E+00  6.27253191649E+00
  6.35460716463E+00  6.43775635650E+00  6.52199354452E+00  6.60733296497E+00
  6.69378904042E+00  6.78137638215E+00  6.87010979263E+00  6.96000426801E+00
  7.05107500068E+00  7.14333738181E+00  7.23680700396E+00  7.33149966371E+00
  7.42743136436E+00  7.52461831859E+00  7.62307695122E+00  7.72282390200E+00
  7.82387602840E+00  7.92625040847E+00  8.02996434373E+00  8.13503536207E+00
  8.24148122075E+00  8.34931990937E+00  8.45856965293E+00  8.56924891489E+00
  8.68137640031E+00  8.79497105901E+00  8.91005208875E+00  9.02663893850E+00
  9.14475131172E+00  9.26440916967E+00  9.38563273482E+00  9.50844249425E+00
  9.63285920308E+00  9.75890388805E+00  9.88659785100E+00  1.00159626725E+01
  1.01470202156E+01  1.02797926292E+01  1.04143023522E+01  1.05505721172E+01
  1.06886249539E+01  1.08284841937E+01  1.09701734730E+01  1.11137167378E+01
  1.12591382472E+01  1.14064625778E+01  1.15557146277E+01  1.17069196208E+01
  1.18601031112E+01  1.20152909873E+01  1.21725094762E+01  1.23317851481E+01
  1.24931449211E+01  1.26566160653E+01  1.28222262077E+01  1.29900033369E+01
  1.31599758076E+01  1.33321723455E+01  1.35066220522E+01  1.36833544103E+01
  1.38623992878E+01  1.40437869437E+01  1.42275480331E+01  1.44137136120E+01
  1.46023151428E+01  1.47933844996E+01  1.49869539735E+01  1.51830562784E+01
  1.53817245559E+01  1.55829923815E+01  1.57868937699E+01  1.59934631809E+01
  1.62027355252E+01  1.64147461705E+01  1.66295309468E+01  1.68471261535E+01
  1.70675685646E+01  1.72908954355E+01  1.75171445088E+01  1.77463540212E+01
  1.79785627097E+01  1.82138098181E+01  1.84521351036E+01  1.86935788440E+01
  1.89381818436E+01  1.91859854411E+01  1.94370315158E+01  1.96913624950E+01
  1.99490213614E+01  2.02100516599E+01  2.04744975052E+01  2.07424035893E+01
  2.10138151890E+01  2.12887781734E+01  2.15673390121E+01  2.18495447824E+01
  2.21354431777E+01  2.24250825157E+01  2.27185117459E+01  2.30157804587E+01
  2.33169388932E+01  2.36220379459E+01  2.39311291791E+01  2.42442648302E+01
  2.45614978198E+01  2.48828817609E+01  2.52084709683E+01  2.55383204672E+01
  2.58724860031E+01  2.62110240507E+01  2.65539918238E+01  2.69014472847E+01
  2.72534491542E+01  2.76100569215E+01  2.79713308541E+01  2.83373320082E+01
  2.87081222389E+01  2.90837642105E+01  2.94643214075E+01  2.98498581450E+01
  3.02404395795E+01  3.06361317203E+01  3.10370014403E+01  3.14431164874E+01
  3.18545454960E+01  3.22713579986E+01  3.26936244376E+01  3.31214161769E+01
  3.35548055143E+01  3.39938656937E+01  3.44386709174E+01  3.48892963584E+01
  3.53458181735E+01  3.58083135160E+01  3.62768605488E+01  3.67515384573E+01
  3.72324274633E+01  3.77196088381E+01  3.82131649166E+01  3.87131791110E+01
  3.92197359247E+01  3.97329209672E+01  4.02528209678E+01  4.07795237911E+01
  4.13131184509E+01  4.18536951260E+01  4.24013451752E+01  4.29561611527E+01
  4.35182368237E+01  4.40876671803E+01  4.46645484575E+01  4.52489781498E+01
  4.58410550270E+01  4.64408791517E+01  4.70485518955E+01  4.76641759565E+01
  4.82878553767E+01  4.89196955594E+01  4.95598032871E+01  5.02082867395E+01
  5.08652555118E+01  5.15308206334E+01  5.22050945863E+01  5.28881913245E+01
  5.35802262929E+01  5.42813164470E+01  5.49915802729E+01  5.57111378067E+01
  5.64401106553E+01  5.71786220170E+01  5.79267967019E+01  5.86847611533E+01
  5.94526434691E+01  6.02305734231E+01  6.10186824873E+01  6.18171038541E+01
  6.26259724586E+01  6.34454250015E+01  6.42755999723E+01  6.51166376724E+01
  6.59686802392E+01  6.68318716701E+01  6.77063578463E+01  6.85922865581E+01
  6.94898075296E+01  7.03990724440E+01  7.13202349692E+01  7.22534507838E+01
  7.31988776036E+01  7.41566752080E+01  7.51270054669E+01  7.61100323686E+01
  7.71059220469E+01  7.81148428095E+01  7.91369651665E+01  8.01724618590E+01
  8.12215078883E+01  8.22842805458E+01  8.33609594425E+01  8.44517265398E+01
  8.55567661799E+01  8.66762651171E+01  8.78104125494E+01  8.89594001504E+01
  9.01234221018E+01  9.13026751260E+01  9.24973585196E+01  9.37076741870E+01
  9.49338266743E+01  9.61760232043E+01  9.74344737111E+01  9.87093908759E+01
  1.00000990163E+02  1.01309489855E+02  1.02635111092E+02  1.03978077907E+02
  1.05338617265E+02  1.06716959099E+02  1.08113336354E+02  1.09527985020E+02
  1.10961144177E+02  1.12413056030E+02  1.13883965958E+02  1.15374122547E+02
  1.16883777637E+02  1.18413186364E+02
  </PP_R>
  <PP_RAB>
  7.60244432280E-07  7.70192129837E-07  7.80269991697E-07  7.90479721044E-07
  8.00823043344E-07  8.11301706645E-07  8.21917481865E-07  8.32672163096E-07
  8.43567567904E-07  8.54605537639E-07  8.65787937744E-07  8.77116658072E-07
  8.88593613201E-07  9.00220742767E-07  9.12000011781E-07  9.23933410967E-07
  9.36022957099E-07  9.48270693338E-07  9.60678689582E-07  9.73249042810E-07
  9.85983877443E-07  9.98885345699E-07  1.01195562795E-06  1.02519693312E-06
  1.03861149901E-06  1.05220159271E-06  1.06596951099E-06  1.07991758065E-06
  1.09404815895E-06  1.10836363400E-06  1.12286642513E-06  1.13755898337E-06
  1.15244379178E-06  1.16752336594E-06  1.18280025432E-06  1.19827703876E-06
  1.21395633487E-06  1.22984079249E-06  1.24593309614E-06  1.26223596544E-06
  1.27875215562E-06  1.29548445797E-06  1.31243570027E-06  1.32960874732E-06
  1.34700650142E-06  1.36463190282E-06  1.38248793027E-06  1.40057760146E-06
  1.41890397360E-06  1.43747014390E-06  1.45627925006E-06  1.47533447089E-06
  1.49463902675E-06  1.51419618017E-06  1.53400923634E-06  1.55408154373E-06
  1.57441649459E-06  1.59501752559E-06  1.61588811835E-06  1.63703180005E-06
  1.65845214402E-06  1.68015277034E-06  1.70213734649E-06  1.72440958790E-06
  1.74697325863E-06  1.76983217200E-06  1.79299019122E-06  1.81645123005E-06
  1.84021925346E-06  1.86429827830E-06  1.88869237399E-06  1.91340566319E-06
  1.93844232250E-06  1.96380658317E-06  1.98950273183E-06  2.01553511119E-06
  2.04190812078E-06  2.06862621770E-06  2.09569391738E-06  2.12311579431E-06
  2.15089648287E-06  2.17904067805E-06  2.20755313630E-06  2.23643867628E-06
  2.26570217971E-06  2.29534859221E-06  2.32538292409E-06  2.35581025121E-06
  2.38663571587E-06  2.41786452765E-06  2.44950196429E-06  2.48155337259E-06
  2.51402416931E-06  2.54691984211E-06  2.58024595042E-06  2.61400812644E-06
  2.64821207605E-06  2.68286357980E-06  2.71796849389E-06  2.75353275112E-06
  2.78956236194E-06  2.82606341544E-06  2.86304208038E-06  2.90050460625E-06
  2.93845732430E-06  2.97690664863E-06  3.01585907727E-06  3.05532119327E-06
  3.09529966582E-06  3.13580125139E-06  3.17683279483E-06  3.21840123058E-06
  3.26051358379E-06  3.30317697156E-06  3.34639860410E-06  3.39018578596E-06
  3.43454591730E-06  3.47948649507E-06  3.52501511433E-06  3.57113946955E-06
  3.61786735583E-06  3.66520667031E-06  3.71316541343E-06  3.76175169035E-06
  3.81097371226E-06  3.86083979780E-06  3.91135837445E-06  3.96253797998E-06
  4.01438726385E-06  4.06691498873E-06  4.12013003192E-06  4.17404138690E-06
  4.22865816480E-06  4.28398959599E-06  4.34004503163E-06  4.39683394520E-06
  4.45436593418E-06  4.51265072160E-06  4.57169815773E-06  4.63151822174E-06
  4.69212102334E-06  4.75351680457E-06  4.81571594145E-06  4.87872894578E-06
  4.94256646692E-06  5.00723929356E-06  5.07275835556E-06  5.13913472579E-06
  5.20637962202E-06  5.27450440880E-06  5.34352059938E-06  5.41343985765E-06
  5.48427400015E-06  5.55603499801E-06  5.62873497900E-06  5.70238622961E-06
  5.77700119705E-06  5.85259249146E-06  5.92917288792E-06  6.00675532871E-06
  6.08535292545E-06  6.16497896132E-06  6.24564689330E-06  6.32737035448E-06
  6.41016315630E-06  6.49403929095E-06  6.57901293371E-06  6.66509844530E-06
  6.75231037440E-06  6.84066346002E-06  6.93017263405E-06  7.02085302375E-06
  7.11271995431E-06  7.20578895148E-06  7.30007574414E-06  7.39559626696E-06
  7.49236666316E-06  7.59040328716E-06  7.68972270738E-06  7.79034170904E-06
  7.89227729699E-06  7.99554669859E-06  8.10016736661E-06  8.20615698220E-06
  8.31353345784E-06  8.42231494043E-06  8.53251981429E-06  8.64416670430E-06
  8.75727447906E-06  8.87186225406E-06  8.98794939488E-06  9.10555552055E-06
  9.22470050678E-06  9.34540448934E-06  9.46768786751E-06  9.59157130746E-06
  9.71707574579E-06  9.84422239305E-06  9.97303273732E-06  1.01035285479E-05
  1.02357318788E-05  1.03696650727E-05  1.05053507648E-05  1.06428118861E-05
  1.07820716680E-05  1.09231536456E-05  1.10660816622E-05  1.12108798730E-05
  1.13575727491E-05  1.15061850820E-05  1.16567419877E-05  1.18092689104E-05
  1.19637916277E-05  1.21203362543E-05  1.22789292465E-05  1.24395974070E-05
  1.26023678891E-05  1.27672682014E-05  1.29343262123E-05  1.31035701552E-05
  1.32750286326E-05  1.34487306215E-05  1.36247054778E-05  1.38029829418E-05
  1.39835931428E-05  1.41665666043E-05  1.43519342492E-05  1.45397274052E-05
  1.47299778098E-05  1.49227176156E-05  1.51179793963E-05  1.53157961514E-05
  1.55162013126E-05  1.57192287487E-05  1.59249127719E-05  1.61332881432E-05
  1.63443900786E-05  1.65582542549E-05  1.67749168155E-05  1.69944143770E-05
  1.72167840350E-05  1.74420633705E-05  1.76702904562E-05  1.79015038630E-05
  1.81357426666E-05  1.83730464538E-05  1.86134553297E-05  1.88570099238E-05
  1.91037513974E-05  1.93537214505E-05  1.96069623286E-05  1.98635168300E-05
  2.01234283131E-05  2.03867407034E-05  2.06534985014E-05  2.09237467898E-05
  2.11975312412E-05  2.14748981258E-05  2.17558943194E-05  2.20405673108E-05
  2.23289652106E-05  2.26211367587E-05  2.29171313327E-05  2.32169989565E-05
  2.35207903083E-05  2.38285567297E-05  2.41403502339E-05  2.44562235147E-05
  2.47762299555E-05  2.51004236382E-05  2.54288593521E-05  2.57615926039E-05
  2.60986796261E-05  2.64401773872E-05  2.67861436013E-05  2.71366367374E-05
  2.74917160297E-05  2.78514414875E-05  2.82158739051E-05  2.85850748726E-05
  2.89591067858E-05  2.93380328569E-05  2.97219171255E-05  3.01108244687E-05
  3.05048206130E-05  3.09039721446E-05  3.13083465210E-05  3.17180120824E-05
  3.21330380635E-05  3.25534946044E-05  3.29794527634E-05  3.34109845284E-05
  3.38481628293E-05  3.42910615503E-05  3.47397555423E-05  3.51943206357E-05
  3.56548336530E-05  3.61213724221E-05  3.65940157891E-05  3.70728436319E-05
  3.75579368735E-05  3.80493774957E-05  3.85472485534E-05  3.90516341878E-05
  3.95626196413E-05  4.00802912718E-05  4.06047365668E-05  4.11360441589E-05
  4.16743038405E-05  4.22196065785E-05  4.27720445306E-05  4.33317110600E-05
  4.38987007517E-05  4.44731094283E-05  4.50550341662E-05  4.56445733122E-05
  4.62418264997E-05  4.68468946659E-05  4.74598800688E-05  4.80808863044E-05
  4.87100183243E-05  4.93473824531E-05  4.99930864071E-05  5.06472393116E-05
  5.13099517202E-05  5.19813356327E-05  5.26615045146E-05  5.33505733161E-05
  5.40486584916E-05  5.47558780189E-05  5.54723514199E-05  5.61981997804E-05
  5.69335457704E-05  5.76785136651E-05  5.84332293659E-05  5.91978204216E-05
  5.99724160498E-05  6.07571471591E-05  6.15521463708E-05  6.23575480418E-05
  6.31734882868E-05  6.40001050017E-05  6.48375378866E-05  6.56859284698E-05
  6.65454201313E-05  6.74161581271E-05  6.82982896141E-05  6.91919636746E-05
  7.00973313416E-05  7.10145456245E-05  7.19437615346E-05  7.28851361117E-05
  7.38388284502E-05  7.48049997265E-05  7.57838132257E-05  7.67754343698E-05
  7.77800307450E-05  7.87977721306E-05  7.98288305272E-05  8.08733801861E-05
  8.19315976388E-05  8.30036617264E-05  8.40897536305E-05  8.51900569031E-05
  8.63047574980E-05  8.74340438024E-05  8.85781066683E-05  8.97371394450E-05
  9.09113380119E-05  9.21009008113E-05  9.33060288822E-05  9.45269258940E-05