<PP_INFO>
Generated using unknown code
Author: X. Gonze et al.   Generation date: 1990
Info:  Cl BHS modified for use as KB with l=2 as local part
    0        The Pseudo was generated with a Non-Relativistic Calculation
  0.00000000000E+00    Local Potential cutoff radius
nl pn  l   occ               Rcut            Rcut US             E pseu
3S  0  0  2.00      0.00000000000      0.00000000000      0.00000000000
3P  0  1  5.00      0.00000000000      0.00000000000      0.00000000000
</PP_INFO>


<PP_HEADER>
   0                   Version Number
  Cl                   Element
   NC                  Norm - Conserving pseudopotential
    F                  Nonlinear Core Correction
 SLA  PZ   NOGX NOGC   PZ   Exchange-Correlation functional
    7.00000000000      Z valence
    0.00000000000      Total energy
  0.0000000  0.0000000 Suggested cutoff for wfc and rho
    1                  Max angular momentum component
  479                  Number of points in mesh
    2    2             Number of Wavefunctions, Number of Projectors
 Wavefunctions         nl  l   occ
                       3S  0  2.00
                       3P  1  5.00
</PP_HEADER>


<PP_MESH>
  <PP_R>
  3.96349823476E-04  4.06383467027E-04  4.16671113474E-04  4.27219192930E-04
  4.38034298290E-04  4.49123189345E-04  4.60492797013E-04  4.72150227670E-04
  4.84102767589E-04  4.96357887497E-04  5.08923247242E-04  5.21806700584E-04
  5.35016300100E-04  5.48560302219E-04  5.62447172385E-04  5.76685590342E-04
  5.91284455567E-04  6.06252892824E-04  6.21600257874E-04  6.37336143320E-04
  6.53470384602E-04  6.70013066148E-04  6.86974527670E-04  7.04365370636E-04
  7.22196464886E-04  7.40478955437E-04  7.59224269440E-04  7.78444123326E-04
  7.98150530129E-04  8.18355806996E-04  8.39072582882E-04  8.60313806447E-04
  8.82092754146E-04  9.04423038531E-04  9.27318616756E-04  9.50793799304E-04
  9.74863258927E-04  9.99542039822E-04  1.02484556703E-03  1.05078965608E-03
  1.07739052287E-03  1.10466479380E-03  1.13262951620E-03  1.16130216891E-03
  1.19070067328E-03  1.22084340434E-03  1.25174920226E-03  1.28343738418E-03
  1.31592775625E-03  1.34924062600E-03  1.38339681506E-03  1.41841767217E-03
  1.45432508649E-03  1.49114150134E-03  1.52888992816E-03  1.56759396096E-03
  1.60727779102E-03  1.64796622201E-03  1.68968468554E-03  1.73245925701E-03
  1.77631667190E-03  1.82128434254E-03  1.86739037518E-03  1.91466358759E-03
  1.96313352708E-03  2.01283048892E-03  2.06378553534E-03  2.11603051491E-03
  2.16959808243E-03  2.22452171937E-03  2.28083575481E-03  2.33857538684E-03
  2.39777670461E-03  2.45847671088E-03  2.52071334512E-03  2.58452550726E-03
  2.64995308197E-03  2.71703696363E-03  2.78581908183E-03  2.85634242765E-03
  2.92865108046E-03  3.00279023554E-03  3.07880623226E-03  3.15674658310E-03
  3.23666000332E-03  3.31859644140E-03  3.40260711028E-03  3.48874451938E-03
  3.57706250737E-03  3.66761627586E-03  3.76046242392E-03  3.85565898341E-03
  3.95326545528E-03  4.05334284674E-03  4.15595370944E-03  4.26116217849E-03
  4.36903401261E-03  4.47963663521E-03  4.59303917654E-03  4.70931251687E-03
  4.82852933082E-03  4.95076413278E-03  5.07609332349E-03  5.20459523777E-03
  5.33635019349E-03  5.47144054180E-03  5.60995071856E-03  5.75196729714E-03
  5.89757904252E-03  6.04687696678E-03  6.19995438599E-03  6.35690697852E-03
  6.51783284484E-03  6.68283256887E-03  6.85200928079E-03  7.02546872157E-03
  7.20331930900E-03  7.38567220548E-03  7.57264138752E-03  7.76434371693E-03
  7.96089901392E-03  8.16243013194E-03  8.36906303450E-03  8.58092687390E-03
  8.79815407192E-03  9.02088040264E-03  9.24924507727E-03  9.48339083116E-03
  9.72346401303E-03  9.96961467644E-03  1.02219966736E-02  1.04807677513E-02
  1.07460896502E-02  1.10181282048E-02  1.12970534483E-02  1.15830397179E-02
  1.18762657644E-02  1.21769148636E-02  1.24851749310E-02  1.28012386391E-02
  1.31253035381E-02  1.34575721791E-02  1.37982522408E-02  1.41475566593E-02
  1.45057037613E-02  1.48729174003E-02  1.52494270968E-02  1.56354681817E-02
  1.60312819432E-02  1.64371157777E-02  1.68532233447E-02  1.72798647249E-02
  1.77173065831E-02  1.81658223346E-02  1.86256923164E-02  1.90972039623E-02
  1.95806519822E-02  2.00763385471E-02  2.05845734771E-02  2.11056744356E-02
  2.16399671277E-02  2.21877855037E-02  2.27494719679E-02  2.33253775926E-02
  2.39158623377E-02  2.45212952752E-02  2.51420548205E-02  2.57785289685E-02
  2.64311155363E-02  2.71002224117E-02  2.77862678083E-02  2.84896805268E-02
  2.92109002230E-02  2.99503776828E-02  3.07085751036E-02  3.14859663835E-02
  3.22830374173E-02  3.31002864004E-02  3.39382241400E-02  3.47973743745E-02
  3.56782741007E-02  3.65814739097E-02  3.75075383307E-02  3.84570461841E-02
  3.94305909433E-02  4.04287811054E-02  4.14522405717E-02  4.25016090378E-02
  4.35775423930E-02  4.46807131309E-02  4.58118107689E-02  4.69715422800E-02
  4.81606325340E-02  4.93798247511E-02  5.06298809662E-02  5.19115825050E-02
  5.32257304727E-02  5.45731462546E-02  5.59546720295E-02  5.73711712958E-02
  5.88235294118E-02  6.03126541485E-02  6.18394762574E-02  6.34049500520E-02
  6.50100540044E-02  6.66557913569E-02  6.83431907487E-02  7.00733068596E-02
  7.18472210682E-02  7.36660421289E-02  7.55309068640E-02  7.74429808746E-02
  7.94034592692E-02  8.14135674106E-02  8.34745616820E-02  8.55877302717E-02
  8.77543939789E-02  8.99759070390E-02  9.22536579700E-02  9.45890704403E-02
  9.69836041588E-02  9.94387557870E-02  1.01956059875E-01  1.04537089818E-01
  1.07183458847E-01  1.09896821025E-01  1.12678872295E-01  1.15531351528E-01
  1.18456041616E-01  1.21454770586E-01  1.24529412742E-01  1.27681889834E-01
  1.30914172264E-01  1.34228280313E-01  1.37626285407E-01  1.41110311410E-01
  1.44682535950E-01  1.48345191786E-01  1.52100568195E-01  1.55951012411E-01
  1.59898931086E-01  1.63946791798E-01  1.68097124592E-01  1.72352523561E-01
  1.76715648467E-01  1.81189226407E-01  1.85776053511E-01  1.90478996696E-01
  1.95300995455E-01  2.00245063694E-01  2.05314291615E-01  2.10511847653E-01
  2.15840980448E-01  2.21305020882E-01  2.26907384159E-01  2.32651571937E-01
  2.38541174520E-01  2.44579873103E-01  2.50771442069E-01  2.57119751349E-01
  2.63628768843E-01  2.70302562900E-01  2.77145304858E-01  2.84161271654E-01
  2.91354848494E-01  2.98730531599E-01  3.06292931011E-01  3.14046773475E-01
  3.21996905396E-01  3.30148295864E-01  3.38506039765E-01  3.47075360960E-01
  3.55861615554E-01  3.64870295241E-01  3.74107030741E-01  3.83577595314E-01
  3.93287908369E-01  4.03244039171E-01  4.13452210623E-01  4.23918803166E-01
  4.34650358761E-01  4.45653584979E-01  4.56935359195E-01  4.68502732884E-01
  4.80362936033E-01  4.92523381655E-01  5.04991670422E-01  5.17775595423E-01
  5.30883147026E-01  5.44322517877E-01  5.58102108021E-01  5.72230530151E-01
  5.86716614989E-01  6.01569416811E-01  6.16798219102E-01  6.32412540357E-01
  6.48422140038E-01  6.64837024664E-01  6.81667454072E-01  6.98923947829E-01
  7.16617291806E-01  7.34758544918E-01  7.53359046039E-01  7.72430421088E-01
  7.91984590294E-01  8.12033775651E-01  8.32590508552E-01  8.53667637623E-01
  8.75278336757E-01  8.97436113345E-01  9.20154816717E-01  9.43448646803E-01
  9.67332163006E-01  9.91820293299E-01  1.01692834356E+00  1.04267200714E+00
  1.06906737467E+00  1.09613094411E+00  1.12387963107E+00  1.15233077939E+00
  1.18150217195E+00  1.21141204184E+00  1.24207908368E+00  1.27352246538E+00
  1.30576184008E+00  1.33881735844E+00  1.37270968123E+00  1.40745999226E+00
  1.44309001159E+00  1.47962200917E+00  1.51707881866E+00  1.55548385180E+00
  1.59486111298E+00  1.63523521427E+00  1.67663139081E+00  1.71907551654E+00
  1.76259412044E+00  1.80721440303E+00  1.85296425346E+00  1.89987226686E+00
  1.94796776228E+00  1.99728080096E+00  2.04784220515E+00  2.09968357739E+00
  2.15283732022E+00  2.20733665645E+00  2.26321564994E+00  2.32050922689E+00
  2.37925319765E+00  2.43948427911E+00  2.50124011765E+00  2.56455931269E+00
  2.62948144078E+00  2.69604708037E+00  2.76429783715E+00  2.83427637006E+00
  2.90602641797E+00  2.97959282699E+00  3.05502157852E+00  3.13235981798E+00
  3.21165588430E+00  3.29295934010E+00  3.37632100267E+00  3.46179297579E+00
  3.54942868220E+00  3.63928289708E+00  3.73141178224E+00  3.82587292124E+00
  3.92272535535E+00  4.02202962050E+00  4.12384778510E+00  4.22824348880E+00
  4.33528198233E+00  4.44503016822E+00  4.55755664266E+00  4.67293173837E+00
  4.79122756853E+00  4.91251807188E+00  5.03687905895E+00  5.16438825940E+00
  5.29512537062E+00  5.42917210757E+00  5.56661225382E+00  5.70753171394E+00
  5.85201856717E+00  6.00016312251E+00  6.15205797512E+00  6.30779806424E+00
  6.46748073248E+00  6.63120578671E+00  6.79907556042E+00  6.97119497769E+00
  7.14767161875E+00  7.32861578725E+00  7.51414057918E+00  7.70436195358E+00
  7.89939880500E+00  8.09937303782E+00  8.30440964244E+00  8.51463677342E+00
  8.73018582956E+00  8.95119153604E+00  9.17779202861E+00  9.41012893996E+00
  9.64834748823E+00  9.89259656776E+00  1.01430288422E+01  1.03998008398E+01
  1.06630730515E+01  1.09330100309E+01  1.12097804976E+01  1.14935574419E+01
  1.17845182338E+01  1.20828447332E+01  1.23887234039E+01  1.27023454300E+01
  1.30239068355E+01  1.33536086068E+01  1.36916568181E+01  1.40382627606E+01
  1.43936430744E+01  1.47580198836E+01  1.51316209356E+01  1.55146797433E+01
  1.59074357310E+01  1.63101343837E+01  1.67230274014E+01  1.71463728556E+01
  1.75804353510E+01  1.80254861908E+01  1.84818035462E+01  1.89496726305E+01
  1.94293858770E+01  1.99212431222E+01  2.04255517929E+01  2.09426270983E+01
  2.14727922274E+01  2.20163785506E+01  2.25737258271E+01  2.31451824171E+01
  2.37311054996E+01  2.43318612955E+01  2.49478252968E+01  2.55793825010E+01
  2.62269276519E+01  2.68908654864E+01  2.75716109872E+01  2.82695896424E+01
  2.89852377114E+01  2.97190024975E+01  3.04713426275E+01  3.12427283387E+01
  3.20336417721E+01  3.28445772744E+01  3.36760417067E+01  3.45285547613E+01
  3.54026492866E+01  3.62988716202E+01  3.72177819301E+01  3.81599545653E+01
  3.91259784144E+01  4.01164572736E+01  4.11320102245E+01  4.21732720207E+01
  4.32408934848E+01  4.43355419150E+01  4.54579015021E+01  4.66086737574E+01
  4.77885779510E+01  4.89983515616E+01  5.02387507368E+01  5.15105507667E+01
  5.28145465677E+01  5.41515531795E+01  5.55224062748E+01  5.69279626815E+01
  5.83691009179E+01  5.98467217426E+01  6.13617487165E+01
  </PP_R>
  <PP_RAB>
  9.90874558689E-06  1.01595866757E-05  1.04167778368E-05  1.06804798233E-05
  1.09508574572E-05  1.12280797336E-05  1.15123199253E-05  1.18037556918E-05
  1.21025691897E-05  1.24089471874E-05  1.27230811811E-05  1.30451675146E-05
  1.33754075025E-05  1.37140075555E-05  1.40611793096E-05  1.44171397586E-05
  1.47821113892E-05  1.51563223206E-05  1.55400064468E-05  1.59334035830E-05
  1.63367596151E-05  1.67503266537E-05  1.71743631918E-05  1.76091342659E-05
  1.80549116222E-05  1.85119738859E-05  1.89806067360E-05  1.94611030831E-05
  1.99537632532E-05  2.04588951749E-05  2.09768145721E-05  2.15078451612E-05
  2.20523188536E-05  2.26105759633E-05  2.31829654189E-05  2.37698449826E-05
  2.43715814732E-05  2.49885509955E-05  2.56211391757E-05  2.62697414019E-05
  2.69347630717E-05  2.76166198451E-05  2.83157379050E-05  2.90325542228E-05
  2.97675168321E-05  3.05210851084E-05  3.12937300564E-05  3.20859346045E-05
  3.28981939061E-05  3.37310156499E-05  3.45849203765E-05  3.54604418041E-05
  3.63581271623E-05  3.72785375334E-05  3.82222482041E-05  3.91898490241E-05
  4.01819447754E-05  4.11991555503E-05  4.22421171386E-05  4.33114814252E-05
  4.44079167975E-05  4.55321085635E-05  4.66847593795E-05  4.78665896899E-05
  4.90783381770E-05  5.03207622230E-05  5.15946383836E-05  5.29007628727E-05
  5.42399520606E-05  5.56130429843E-05  5.70208938702E-05  5.84643846709E-05
  5.99444176152E-05  6.14619177719E-05  6.30178336280E-05  6.46131376815E-05
  6.62488270493E-05  6.79259240907E-05  6.96454770458E-05  7.14085606912E-05
  7.32162770116E-05  7.50697558885E-05  7.69701558065E-05  7.89186645775E-05
  8.09165000830E-05  8.29649110350E-05  8.50651777571E-05  8.72186129845E-05
  8.94265626841E-05  9.16904068966E-05  9.40115605981E-05  9.63914745853E-05
  9.88316363820E-05  1.01333571169E-04  1.03898842736E-04  1.06529054462E-04
  1.09225850315E-04  1.11990915880E-04  1.14825979413E-04  1.17732812922E-04
  1.20713233270E-04  1.23769103320E-04  1.26902333087E-04  1.30114880944E-04
  1.33408754837E-04  1.36786013545E-04  1.40248767964E-04  1.43799182428E-04
  1.47439476063E-04  1.51171924170E-04  1.54998859650E-04  1.58922674463E-04
  1.62945821121E-04  1.67070814222E-04  1.71300232020E-04  1.75636718039E-04
  1.80082982725E-04  1.84641805137E-04  1.89316034688E-04  1.94108592923E-04
  1.99022475348E-04  2.04060753298E-04  2.09226575863E-04  2.14523171847E-04
  2.19953851798E-04  2.25522010066E-04  2.31231126932E-04  2.37084770779E-04
  2.43086600326E-04  2.49240366911E-04  2.55549916839E-04  2.62019193784E-04
  2.68652241254E-04  2.75453205121E-04  2.82426336207E-04  2.89575992947E-04
  2.96906644110E-04  3.04422871590E-04  3.12129373275E-04  3.20030965978E-04
  3.28132588454E-04  3.36439304478E-04  3.44956306020E-04  3.53688916483E-04
  3.62642594032E-04  3.71822935007E-04  3.81235677420E-04  3.90886704543E-04
  4.00782048579E-04  4.10927894443E-04  4.21330583618E-04  4.31996618123E-04
  4.42932664577E-04  4.54145558365E-04  4.65642307910E-04  4.77430099056E-04
  4.89516299556E-04  5.01908463678E-04  5.14614336928E-04  5.27641860891E-04
  5.40999178193E-04  5.54694637593E-04  5.68736799198E-04  5.83134439816E-04
  5.97896558442E-04  6.13032381880E-04  6.28551370513E-04  6.44463224213E-04
  6.60777888408E-04  6.77505560293E-04  6.94656695207E-04  7.12242013170E-04
  7.30272505576E-04  7.48759442070E-04  7.67714377590E-04  7.87149159587E-04
  8.07075935432E-04  8.27507160010E-04  8.48455603501E-04  8.69934359363E-04
  8.91956852519E-04  9.14536847743E-04  9.37688458267E-04  9.61426154603E-04
  9.85764773582E-04  1.01071952763E-03  1.03630601429E-03  1.06254022594E-03
  1.08943855983E-03  1.11701782827E-03  1.14529526922E-03  1.17428855700E-03
  1.20401581335E-03  1.23449561878E-03  1.26574702415E-03  1.29778956262E-03
  1.33064326182E-03  1.36432865637E-03  1.39886680074E-03  1.43427928239E-03
  1.47058823529E-03  1.50781635371E-03  1.54598690644E-03  1.58512375130E-03
  1.62525135011E-03  1.66639478392E-03  1.70857976872E-03  1.75183267149E-03
  1.79618052671E-03  1.84165105322E-03  1.88827267160E-03  1.93607452186E-03
  1.98508648173E-03  2.03533918527E-03  2.08686404205E-03  2.13969325679E-03
  2.19385984947E-03  2.24939767598E-03  2.30634144925E-03  2.36472676101E-03
  2.42459010397E-03  2.48596889468E-03  2.54890149686E-03  2.61342724546E-03
  2.67958647116E-03  2.74742052564E-03  2.81697180737E-03  2.88828378819E-03
  2.96140104040E-03  3.03636926466E-03  3.11323531855E-03  3.19204724586E-03
  3.27285430661E-03  3.35570700784E-03  3.44065713519E-03  3.52775778525E-03
  3.61706339876E-03  3.70862979464E-03  3.80251420488E-03  3.89877531027E-03
  3.99747327715E-03  4.09866979495E-03  4.20242811480E-03  4.30881308902E-03
  4.41789121169E-03  4.52973066017E-03  4.64440133778E-03  4.76197491741E-03
  4.88252488638E-03  5.00612659234E-03  5.13285729039E-03  5.26279619133E-03
  5.39602451120E-03  5.53262552206E-03  5.67268460397E-03  5.81628929841E-03
  5.96352936301E-03  6.11449682758E-03  6.26928605172E-03  6.42799378372E-03
  6.59071922109E-03  6.75756407251E-03  6.92863262146E-03  7.10403179134E-03
  7.28387121235E-03  7.46826328997E-03  7.65732327526E-03  7.85116933687E-03
  8.04992263489E-03  8.25370739661E-03  8.46265099413E-03  8.67688402400E-03
  8.89654038884E-03  9.12175738104E-03  9.35267576853E-03  9.58943988284E-03
  9.83219770923E-03  1.00811009793E-02  1.03363052656E-02  1.05979700791E-02
  1.08662589690E-02  1.11413396245E-02  1.14233839799E-02  1.17125683221E-02
  1.20090734008E-02  1.23130845414E-02  1.26247917606E-02  1.29443898856E-02
  1.32720786756E-02  1.36080629469E-02  1.39525527005E-02  1.43057632538E-02
  1.46679153747E-02  1.50392354203E-02  1.54199554775E-02  1.58103135089E-02
  1.62105535009E-02  1.66209256166E-02  1.70416863518E-02  1.74730986957E-02
  1.79154322952E-02  1.83689636230E-02  1.88339761510E-02  1.93107605272E-02
  1.97996147574E-02  2.03008443913E-02  2.08147627138E-02  2.13416909406E-02
  2.18819584189E-02  2.24359028336E-02  2.30038704179E-02  2.35862161701E-02
  2.41833040751E-02  2.47955073325E-02  2.54232085891E-02  2.60668001786E-02
  2.67266843668E-02  2.74032736028E-02  2.80969907768E-02  2.88082694847E-02
  2.95375542988E-02  3.02853010459E-02  3.10519770920E-02  3.18380616346E-02
  3.26440460021E-02  3.34704339611E-02  3.43177420308E-02  3.51864998064E-02
  3.60772502899E-02  3.69905502291E-02  3.79269704665E-02  3.88870962949E-02
  3.98715278245E-02  4.08808803569E-02  4.19157847702E-02  4.29768879136E-02
  4.40648530109E-02  4.51803600757E-02  4.63241063364E-02  4.74968066715E-02
  4.86991940569E-02  4.99320200239E-02  5.11960551288E-02  5.24920894348E-02
  5.38209330054E-02  5.51834164112E-02  5.65803912486E-02  5.80127306724E-02
  5.94813299413E-02  6.09871069777E-02  6.25310029413E-02  6.41139828172E-02
  6.57370360196E-02  6.74011770093E-02  6.91074459288E-02  7.08569092516E-02
  7.26506604493E-02  7.44898206748E-02  7.63755394630E-02  7.83089954496E-02
  8.02913971076E-02  8.23239835024E-02  8.44080250668E-02  8.65448243946E-02
  8.87357170549E-02  9.09820724270E-02  9.32852945561E-02  9.56468230309E-02
  9.80681338837E-02  1.00550740513E-01  1.03096194627E-01  1.05706087220E-01
  1.08382049558E-01  1.11125754205E-01  1.13938916067E-01  1.16823293459E-01
  1.19780689213E-01  1.22812951797E-01  1.25921976474E-01  1.29109706485E-01
  1.32378134265E-01  1.35729302689E-01  1.39165306345E-01  1.42688292848E-01
  1.46300464179E-01  1.50004078063E-01  1.53801449378E-01  1.57694951606E-01
  1.61687018312E-01  1.65780144668E-01  1.69976889011E-01  1.74279874442E-01
  1.78691790469E-01  1.83215394681E-01  1.87853514479E-01  1.92609048839E-01
  1.97484970125E-01  2.02484325945E-01  2.07610241061E-01  2.12865919336E-01
  2.18254645739E-01  2.23779788401E-01  2.29444800715E-01  2.35253223499E-01
  2.41208687206E-01  2.47314914194E-01  2.53575721054E-01  2.59995020995E-01
  2.66576826287E-01  2.73325250773E-01  2.80244512439E-01  2.87338936048E-01
  2.94612955845E-01  3.02071118331E-01  3.09718085098E-01  3.17558635751E-01
  3.25597670889E-01  3.33840215170E-01  3.42291420452E-01  3.50956569016E-01
  3.59841076859E-01  3.68950497089E-01  3.78290523391E-01  3.87866993584E-01
  3.97685893274E-01  4.07753359593E-01  4.18075685035E-01  4.28659321390E-01
  4.39510883775E-01  4.50637154770E-01  4.62045088655E-01  4.73741815762E-01
  4.85734646926E-01  4.98031078056E-01  5.10638794822E-01  5.23565677457E-01
  5.36819805684E-01  5.50409463765E-01  5.64343145678E-01  5.78629560428E-01
  5.93277637489E-01  6.08296532387E-01  6.23695632419E-01  6.39484562524E-01
  6.55673191298E-01  6.72271637160E-01  6.89290274680E-01  7.06739741060E-01
  7.24630942784E-01  7.42975062437E-01  7.61783565689E-01  7.81068208468E-01
  8.00841044303E-01  8.21114431860E-01  8.41901042667E-01  8.63213869032E-01
  8.85066232165E-01  9.07471790504E-01  9.30444548253E-01  9.53998864134E-01
  9.78149460359E-01  1.00291143184E+00  1.02830025561E+00  1.05433180052E+00
  1.08102233712E+00  1.10838854787E+00  1.13644753755E+00  1.16521684393E+00
  1.19471444878E+00  1.22495878904E+00  1.25596876842E+00  1.28776376917E+00
  1.32036366419E+00  1.35378882949E+00  1.38806015687E+00  1.42319906704E+00
  1.45922752295E+00  1.49616804356E+00  1.53404371791E+00
  </PP_RAB>
</PP_MESH>


<PP_LOCAL>
 -2.21808084690E+01 -2.21808087880E+01 -2.21808091230E+01 -2.21808094750E+01
 -2.21808098460E+01 -2.21808102350E+01 -2.21808106450E+01 -2.21808110750E+01
 -2.21808115270E+01 -2.21808120030E+01 -2.21808125030E+01 -2.21808130290E+01
 -2.21808135810E+01 -2.21808141620E+01 -2.21808147730E+01 -2.21808154150E+01
 -2.21808160900E+01 -2.21808167990E+01 -2.21808175450E+01 -2.21808183290E+01
 -2.21808191540E+01 -2.21808200200E+01 -2.21808209310E+01 -2.21808218890E+01
 -2.21808228960E+01 -2.21808239540E+01 -2.21808250670E+01 -2.21808262370E+01
 -2.21808274670E+01 -2.21808287590E+01 -2.21808301180E+01 -2.21808315470E+01
 -2.21808330490E+01 -2.21808346280E+01 -2.21808362880E+01 -2.21808380340E+01
 -2.21808398680E+01 -2.21808417970E+01 -2.21808438240E+01 -2.21808459560E+01
 -2.21808481970E+01 -2.21808505520E+01 -2.21808530290E+01 -2.21808556320E+01
 -2.21808583690E+01 -2.21808612460E+01 -2.21808642710E+01 -2.21808674510E+01
 -2.21808707930E+01 -2.21808743080E+01 -2.21808780020E+01 -2.21808818860E+01
 -2.21808859690E+01 -2.21808902610E+01 -2.21808947730E+01 -2.21808995170E+01
 -2.21809045040E+01 -2.21809097460E+01 -2.21809152580E+01 -2.21809210520E+01
 -2.21809271430E+01 -2.21809335460E+01 -2.21809402770E+01 -2.21809473540E+01
 -2.21809547930E+01 -2.21809626140E+01 -2.21809708360E+01 -2.21809794790E+01
 -2.21809885660E+01 -2.21809981180E+01 -2.21810081600E+01 -2.21810187170E+01
 -2.21810298150E+01 -2.21810414820E+01 -2.21810537470E+01 -2.21810666410E+01
 -2.21810801960E+01 -2.21810944460E+01 -2.21811094270E+01 -2.21811251750E+01
 -2.21811417310E+01 -2.21811591360E+01 -2.21811774330E+01 -2.21811966680E+01
 -2.21812168890E+01 -2.21812381460E+01 -2.21812604940E+01 -2.21812839870E+01
 -2.21813086840E+01 -2.21813346470E+01 -2.21813619420E+01 -2.21813906350E+01
 -2.21814208000E+01 -2.21814525110E+01 -2.21814858470E+01 -2.21815208920E+01
 -2.21815577340E+01 -2.21815964640E+01 -2.21816371790E+01 -2.21816799820E+01
 -2.21817249780E+01 -2.21817722810E+01 -2.21818220080E+01 -2.21818742850E+01
 -2.21819292400E+01 -2.21819870130E+01 -2.21820477460E+01 -2.21821115920E+01
 -2.21821787110E+01 -2.21822492690E+01 -2.21823234440E+01 -2.21824014190E+01
 -2.21824833910E+01 -2.21825695640E+01 -2.21826601520E+01 -2.21827553830E+01
 -2.21828554940E+01 -2.21829607340E+01 -2.21830713660E+01 -2.21831876680E+01
 -2.21833099280E+01 -2.21834384520E+01 -2.21835735600E+01 -2.21837155910E+01
 -2.21838648970E+01 -2.21840218510E+01 -2.21841868460E+01 -2.21843602910E+01
 -2.21845426200E+01 -2.21847342880E+01 -2.21849357710E+01 -2.21851475730E+01
 -2.21853702200E+01 -2.21856042670E+01 -2.21858502980E+01 -2.21861089250E+01
 -2.21863807920E+01 -2.21866665760E+01 -2.21869669870E+01 -2.21872827740E+01
 -2.21876147210E+01 -2.21879636540E+01 -2.21883304410E+01 -2.21887159920E+01
 -2.21891212660E+01 -2.21895472700E+01 -2.21899950610E+01 -2.21904657500E+01
 -2.21909605040E+01 -2.21914805520E+01 -2.21920271810E+01 -2.21926017460E+01
 -2.21932056700E+01 -2.21938404480E+01 -2.21945076490E+01 -2.21952089250E+01
 -2.21959460070E+01 -2.21967207160E+01 -2.21975349640E+01 -2.21983907590E+01
 -2.21992902090E+01 -2.22002355320E+01 -2.22012290510E+01 -2.22022732110E+01
 -2.22033705770E+01 -2.22045238410E+01 -2.22057358320E+01 -2.22070095180E+01
 -2.22083480170E+01 -2.22097545990E+01 -2.22112326990E+01 -2.22127859210E+01
 -2.22144180480E+01 -2.22161330470E+01 -2.22179350850E+01 -2.22198285300E+01
 -2.22218179660E+01 -2.22239082020E+01 -2.22261042790E+01 -2.22284114870E+01
 -2.22308353700E+01 -2.22333817420E+01 -2.22360566970E+01 -2.22388666230E+01
 -2.22418182120E+01 -2.22449184790E+01 -2.22481747700E+01 -2.22515947810E+01
 -2.22551865710E+01 -2.22589585760E+01 -2.22629196280E+01 -2.22670789700E+01
 -2.22714462730E+01 -2.22760316500E+01 -2.22808456810E+01 -2.22858994230E+01
 -2.22912044340E+01 -2.22967727900E+01 -2.23026171020E+01 -2.23087505400E+01
 -2.23151868490E+01 -2.23219403670E+01 -2.23290260510E+01 -2.23364594910E+01
 -2.23442569310E+01 -2.23524352900E+01 -2.23610121790E+01 -2.23700059220E+01
 -2.23794355700E+01 -2.23893209240E+01 -2.23996825440E+01 -2.24105417700E+01
 -2.24219207340E+01 -2.24338423710E+01 -2.24463304300E+01 -2.24594094800E+01
 -2.24731049210E+01 -2.24874429800E+01 -2.25024507140E+01 -2.25181560080E+01
 -2.25345875610E+01 -2.25517748810E+01 -2.25697482610E+01 -2.25885387620E+01
 -2.26081781790E+01 -2.26286990130E+01 -2.26501344220E+01 -2.26725181770E+01
 -2.26958846020E+01 -2.27202685090E+01 -2.27457051210E+01 -2.27722299920E+01
 -2.27998789040E+01 -2.28286877660E+01 -2.28586924950E+01 -2.28899288870E+01
 -2.29224324730E+01 -2.29562383680E+01 -2.29913811030E+01 -2.30278944450E+01
 -2.30658112040E+01 -2.31051630280E+01 -2.31459801890E+01 -2.31882913490E+01
 -2.32321233190E+01 -2.32775008120E+01 -2.33244461760E+01 -2.33729791250E+01
 -2.34231164590E+01 -2.34748717760E+01 -2.35282551770E+01 -2.35832729620E+01
 -2.36399273240E+01 -2.36982160290E+01 -2.37581320830E+01 -2.38196633950E+01
 -2.38827924100E+01 -2.39474957190E+01 -2.40137436360E+01 -2.40814997100E+01
 -2.41507201880E+01 -2.42213533660E+01 -2.42933388270E+01 -2.43666065240E+01
 -2.44410756550E+01 -2.45166532880E+01 -2.45932326700E+01 -2.46706911470E+01
 -2.47488876200E+01 -2.48276594280E+01 -2.49068185800E+01 -2.49861472060E+01
 -2.50653921180E+01 -2.51442583720E+01 -2.52224017030E+01 -2.52994197490E+01
 -2.53748419630E+01 -2.54481181860E+01 -2.55186058630E+01 -2.55855559770E+01
 -2.56480978380E+01 -2.57052230030E+01 -2.57557686910E+01 -2.57984012550E+01
 -2.58316004380E+01 -2.58536453260E+01 -2.58626031700E+01 -2.58563224410E+01
 -2.58324317150E+01 -2.57883461970E+01 -2.57212838160E+01 -2.56282929350E+01
 -2.55062936580E+01 -2.53521345750E+01 -2.51626664010E+01 -2.49348334190E+01
 -2.46657828170E+01 -2.43529908880E+01 -2.39944037660E+01 -2.35885887160E+01
 -2.31348902590E+01 -2.26335834990E+01 -2.20860152430E+01 -2.14947218830E+01
 -2.08635119350E+01 -2.01975007030E+01 -1.95030851460E+01 -1.87878488100E+01
 -1.80603898830E+01 -1.73300700620E+01 -1.66066878930E+01 -1.59000873020E+01
 -1.52197196030E+01 -1.45741846390E+01 -1.39707830040E+01 -1.34151153850E+01
 -1.29107660720E+01 -1.24591047430E+01 -1.20592333080E+01 -1.17080930590E+01
 -1.14007323720E+01 -1.11307182110E+01 -1.08906578500E+01 -1.06727829190E+01
 -1.04695385710E+01 -1.02741182290E+01 -1.00808900000E+01 -9.88567424240E+00
 -9.68585122030E+00 -9.48030046280E+00 -9.26919553090E+00 -9.05369572720E+00
 -8.83558668320E+00 -8.61692317080E+00 -8.39972005590E+00 -8.18572308650E+00
 -7.97627348920E+00 -7.77226296950E+00 -7.57416203650E+00 -7.38209673920E+00
 -7.19594742740E+00 -7.01544699900E+00 -6.84026321180E+00 -6.67005764260E+00
 -6.50452077070E+00 -6.34338726330E+00 -6.18643758810E+00 -6.03349202830E+00
 -5.88440186450E+00 -5.73904073790E+00 -5.59729764420E+00 -5.45907190240E+00
 -5.32426985050E+00 -5.19280280840E+00 -5.06458586690E+00 -4.93953717250E+00
 -4.81757748970E+00 -4.69862991970E+00 -4.58261970580E+00 -4.46947409210E+00
 -4.35912221550E+00 -4.25149502200E+00 -4.14652519670E+00 -4.04414710690E+00
 -3.94429675130E+00 -3.84691171420E+00 -3.75193112420E+00 -3.65929561420E+00
 -3.56894728340E+00 -3.48082966090E+00 -3.39488767040E+00 -3.31106759510E+00
 -3.22931704490E+00 -3.14958492300E+00 -3.07182139420E+00 -2.99597785370E+00
 -2.92200689690E+00 -2.84986228960E+00 -2.77949893900E+00 -2.71087286560E+00
 -2.64394117610E+00 -2.57866203590E+00 -2.51499464340E+00 -2.45289920440E+00
 -2.39233690720E+00 -2.33326989850E+00 -2.27566125950E+00 -2.21947498280E+00
 -2.16467595020E+00 -2.11122991060E+00 -2.05910345830E+00 -2.00826401280E+00
 -1.95867979770E+00 -1.91031982120E+00 -1.86315385670E+00 -1.81715242410E+00
 -1.77228677090E+00 -1.72852885460E+00 -1.68585132510E+00 -1.64422750760E+00
 -1.60363138580E+00 -1.56403758580E+00 -1.52542136020E+00 -1.48775857260E+00
 -1.45102568260E+00 -1.41519973080E+00 -1.38025832500E+00 -1.34617962550E+00
 -1.31294233210E+00 -1.28052567050E+00 -1.24890937900E+00 -1.21807369660E+00
 -1.18799934980E+00 -1.15866754140E+00 -1.13005993790E+00 -1.10215865860E+00
 -1.07494626430E+00 -1.04840574650E+00 -1.02252051640E+00 -9.97274394900E-01
 -9.72651602350E-01 -9.48636748730E-01 -9.25214823950E-01 -9.02371188550E-01
 -8.80091564520E-01 -8.58362026370E-01 -8.37168992430E-01 -8.16499216360E-01
 -7.96339778880E-01 -7.76678079680E-01 -7.57501829570E-01 -7.38799042760E-01
 -7.20558029400E-01 -7.02767388260E-01 -6.85415999630E-01 -6.68493018300E-01
 -6.51987866870E-01 -6.35890229080E-01 -6.20190043380E-01 -6.04877496650E-01
 -5.89943018050E-01 -5.75377273030E-01 -5.61171157540E-01 -5.47315792300E-01
 -5.33802517240E-01 -5.20622886130E-01 -5.07768661270E-01 -4.95231808350E-01
 -4.83004491440E-01 -4.71079068050E-01 -4.59448084420E-01 -4.48104270800E-01
 -4.37040536930E-01 -4.26249967630E-01 -4.15725818430E-01 -4.05461511400E-01
 -3.95450631020E-01 -3.85686920150E-01 -3.76164276160E-01 -3.66876747090E-01
 -3.57818527930E-01 -3.48983957000E-01 -3.40367512400E-01 -3.31963808570E-01
 -3.23767592940E-01 -3.15773742580E-01 -3.07977261100E-01 -3.00373275430E-01
 -2.92957032840E-01 -2.85723897920E-01 -2.78669349750E-01 -2.71788978990E-01
 -2.65078485190E-01 -2.58533674070E-01 -2.52150454910E-01 -2.45924838000E-01
 -2.39852932110E-01 -2.33930942120E-01 -2.28155166580E-01
</PP_LOCAL>


<PP_NONLOCAL>
  <PP_BETA>
    1    0             Beta    L
   407
  3.45653692354E-03  3.54403961807E-03  3.63375745720E-03  3.72574651844E-03
  3.82006429801E-03  3.91676974758E-03  4.01592331257E-03  4.11758696694E-03
  4.22182425441E-03  4.32870032770E-03  4.43828198795E-03  4.55063772834E-03
  4.66583777515E-03  4.78395413328E-03  4.90506063007E-03  5.02923296178E-03
  5.15654874115E-03  5.28708754576E-03  5.42093096788E-03  5.55816266505E-03
  5.69886841311E-03  5.84313615865E-03  5.99105607564E-03  6.14272062035E-03
  6.29822458973E-03  6.45766518091E-03  6.62114205149E-03  6.78875738205E-03
  6.96061593985E-03  7.13682514454E-03  7.31749513583E-03  7.50273884108E-03
  7.69267204674E-03  7.88741347058E-03  8.08708483660E-03  8.29181094994E-03
  8.50171977440E-03  8.71694251571E-03  8.93761369947E-03  9.16387125807E-03
  9.39585661573E-03  9.63371477654E-03  9.87759441753E-03  1.01276479777E-02
  1.03840317571E-02  1.06469060124E-02  1.09164350578E-02  1.11927873676E-02
  1.14761356810E-02  1.17666571130E-02  1.20645332598E-02  1.23699503177E-02