 *********************************************************
 *                                                       *
 *                  WELCOME TO ABACUS                    *
 *                                                       *
 *            'Atomic-orbital Based Ab-initio            *
 *                  Computation at UStc'                 *
 *                                                       *
 *          Website: http://abacus.ustc.edu.cn/          *
 *                                                       *
 *********************************************************
 Wed May  5 19:18:58 2021
 MAKE THE DIR         : OUT.autotest/
 DONE(0.0335691  SEC) : SETUP UNITCELL
 DONE(0.0909462  SEC) : SYMMETRY
 DONE(0.0912142  SEC) : INIT K-POINTS
 ---------------------------------------------------------
 This calculation is self-consistent
 ---------------------------------------------------------
 SPIN    KPOINTS         PROCESSORS  
 1       1               1           
 ---------------------------------------------------------
 Use plane wave basis
 ---------------------------------------------------------
 ELEMENT NATOM       XC          
 H       2           PZ-LDA
 O       1           PZ-LDA
 ---------------------------------------------------------
 Initial plane wave basis and FFT box
 ---------------------------------------------------------
 DONE(0.111843   SEC) : INIT PLANEWAVE
 UNIFORM GRID DIM     : 30 * 30 * 30
 UNIFORM GRID DIM(BIG): 30 * 30 * 30
 MEMORY FOR PSI (MB)  : 0.137604
 DONE(0.117818   SEC) : LOCAL POTENTIAL
 DONE(0.128342   SEC) : NON-LOCAL POTENTIAL
 START POTENTIAL      : atomic
 DONE(0.136126   SEC) : INIT POTENTIAL
 DONE(0.1717     SEC) : INIT BASIS
 -------------------------------------------
 SELF-CONSISTENT : 
 -------------------------------------------
./src_pw/energy.cpp719 12 0.4
./src_pw/energy.cpp719 9 0.4
./src_pw/energy.cpp719 8 0.4
./src_pw/energy.cpp719 9 0.4
./src_pw/energy.cpp719 12 0.4
./src_pw/energy.cpp719 9 0.4
./src_pw/energy.cpp719 6 0.4
./src_pw/energy.cpp719 5 0.4
./src_pw/energy.cpp719 6 0.4
./src_pw/energy.cpp719 9 0.4
./src_pw/energy.cpp719 8 0.4
./src_pw/energy.cpp719 5 0.4
./src_pw/energy.cpp719 4 0.4
./src_pw/energy.cpp719 5 0.4
./src_pw/energy.cpp719 8 0.4
./src_pw/energy.cpp719 9 0.4
./src_pw/energy.cpp719 6 0.4
./src_pw/energy.cpp719 5 0.4
./src_pw/energy.cpp719 6 0.4
./src_pw/energy.cpp719 9 0.4
./src_pw/energy.cpp719 12 0.4
./src_pw/energy.cpp719 9 0.4
./src_pw/energy.cpp719 8 0.4
./src_pw/energy.cpp719 9 0.4
./src_pw/energy.cpp719 12 0.4
./src_pw/energy.cpp719 9 0.4
./src_pw/energy.cpp719 6 0.4
./src_pw/energy.cpp719 5 0.4
./src_pw/energy.cpp719 6 0.4
./src_pw/energy.cpp719 9 0.4
./src_pw/energy.cpp719 6 0.4
./src_pw/energy.cpp719 3 0.4
./src_pw/energy.cpp719 2 0.4
./src_pw/energy.cpp719 3 0.4
./src_pw/energy.cpp719 6 0.4
./src_pw/energy.cpp719 5 0.4
./src_pw/energy.cpp719 2 0.4
./src_pw/energy.cpp719 1 0.4
./src_pw/energy.cpp719 2 0.4
./src_pw/energy.cpp719 5 0.4
./src_pw/energy.cpp719 6 0.4
./src_pw/energy.cpp719 3 0.4
./src_pw/energy.cpp719 2 0.4
./src_pw/energy.cpp719 3 0.4
./src_pw/energy.cpp719 6 0.4
./src_pw/energy.cpp719 9 0.4
./src_pw/energy.cpp719 6 0.4
./src_pw/energy.cpp719 5 0.4
./src_pw/energy.cpp719 6 0.4
./src_pw/energy.cpp719 9 0.4
./src_pw/energy.cpp719 8 0.4
./src_pw/energy.cpp719 5 0.4
./src_pw/energy.cpp719 4 0.4
./src_pw/energy.cpp719 5 0.4
./src_pw/energy.cpp719 8 0.4
./src_pw/energy.cpp719 5 0.4
./src_pw/energy.cpp719 2 0.4
./src_pw/energy.cpp719 1 0.4
./src_pw/energy.cpp719 2 0.4
./src_pw/energy.cpp719 5 0.4
./src_pw/energy.cpp719 4 0.4
./src_pw/energy.cpp719 1 0.4
./src_pw/energy.cpp719 0 0.4
./src_pw/energy.cpp719 1 0.4
./src_pw/energy.cpp719 4 0.4
./src_pw/energy.cpp719 5 0.4
./src_pw/energy.cpp719 2 0.4
./src_pw/energy.cpp719 1 0.4
./src_pw/energy.cpp719 2 0.4
./src_pw/energy.cpp719 5 0.4
./src_pw/energy.cpp719 8 0.4
./src_pw/energy.cpp719 5 0.4
./src_pw/energy.cpp719 4 0.4
./src_pw/energy.cpp719 5 0.4
./src_pw/energy.cpp719 8 0.4
./src_pw/energy.cpp719 9 0.4
./src_pw/energy.cpp719 6 0.4
./src_pw/energy.cpp719 5 0.4
./src_pw/energy.cpp719 6 0.4
./src_pw/energy.cpp719 9 0.4
./src_pw/energy.cpp719 6 0.4
./src_pw/energy.cpp719 3 0.4
./src_pw/energy.cpp719 2 0.4
./src_pw/energy.cpp719 3 0.4
./src_pw/energy.cpp719 6 0.4
./src_pw/energy.cpp719 5 0.4
./src_pw/energy.cpp719 2 0.4
./src_pw/energy.cpp719 1 0.4
./src_pw/energy.cpp719 2 0.4
./src_pw/energy.cpp719 5 0.4
./src_pw/energy.cpp719 6 0.4
./src_pw/energy.cpp719 3 0.4
./src_pw/energy.cpp719 2 0.4
./src_pw/energy.cpp719 3 0.4
./src_pw/energy.cpp719 6 0.4
./src_pw/energy.cpp719 9 0.4
./src_pw/energy.cpp719 6 0.4
./src_pw/energy.cpp719 5 0.4
./src_pw/energy.cpp719 6 0.4
./src_pw/energy.cpp719 9 0.4
./src_pw/energy.cpp719 12 0.4
./src_pw/energy.cpp719 9 0.4
./src_pw/energy.cpp719 8 0.4
./src_pw/energy.cpp719 9 0.4
./src_pw/energy.cpp719 12 0.4
./src_pw/energy.cpp719 9 0.4
./src_pw/energy.cpp719 6 0.4
./src_pw/energy.cpp719 5 0.4
./src_pw/energy.cpp719 6 0.4
./src_pw/energy.cpp719 9 0.4
./src_pw/energy.cpp719 8 0.4
./src_pw/energy.cpp719 5 0.4
./src_pw/energy.cpp719 4 0.4
./src_pw/energy.cpp719 5 0.4
./src_pw/energy.cpp719 8 0.4
./src_pw/energy.cpp719 9 0.4
./src_pw/energy.cpp719 6 0.4
./src_pw/energy.cpp719 5 0.4
./src_pw/energy.cpp719 6 0.4
./src_pw/energy.cpp719 9 0.4
./src_pw/energy.cpp719 12 0.4
./src_pw/energy.cpp719 9 0.4
./src_pw/energy.cpp719 8 0.4
./src_pw/energy.cpp719 9 0.4
./src_pw/energy.cpp719 12 0.4
./src_pw/energy.cpp719 12.593 0.4
./src_pw/energy.cpp719 9.5929 0.4
./src_pw/energy.cpp719 8.5929 0.4
./src_pw/energy.cpp719 9.5929 0.4
./src_pw/energy.cpp719 12.593 0.4
./src_pw/energy.cpp719 9.5929 0.4
./src_pw/energy.cpp719 6.5929 0.4
./src_pw/energy.cpp719 5.5929 0.4
./src_pw/energy.cpp719 6.5929 0.4
./src_pw/energy.cpp719 9.5929 0.4
./src_pw/energy.cpp719 8.5929 0.4
./src_pw/energy.cpp719 5.5929 0.4
./src_pw/energy.cpp719 4.5929 0.4
./src_pw/energy.cpp719 5.5929 0.4
./src_pw/energy.cpp719 8.5929 0.4
./src_pw/energy.cpp719 9.5929 0.4
./src_pw/energy.cpp719 6.5929 0.4
./src_pw/energy.cpp719 5.5929 0.4
./src_pw/energy.cpp719 6.5929 0.4
./src_pw/energy.cpp719 9.5929 0.4
./src_pw/energy.cpp719 12.593 0.4
./src_pw/energy.cpp719 9.5929 0.4
./src_pw/energy.cpp719 8.5929 0.4
./src_pw/energy.cpp719 9.5929 0.4
./src_pw/energy.cpp719 12.593 0.4
./src_pw/energy.cpp719 9.3067 0.4
./src_pw/energy.cpp719 6.3067 0.4
./src_pw/energy.cpp719 5.3067 0.4
./src_pw/energy.cpp719 6.3067 0.4
./src_pw/energy.cpp719 9.3067 0.4
./src_pw/energy.cpp719 6.3067 0.4
./src_pw/energy.cpp719 3.3067 0.4
./src_pw/energy.cpp719 2.3067 0.4
./src_pw/energy.cpp719 3.3067 0.4
./src_pw/energy.cpp719 6.3067 0.4
./src_pw/energy.cpp719 5.3067 0.4
./src_pw/energy.cpp719 2.3067 0.4
./src_pw/energy.cpp719 1.3067 0.4
./src_pw/energy.cpp719 2.3067 0.4
./src_pw/energy.cpp719 5.3067 0.4
./src_pw/energy.cpp719 6.3067 0.4
./src_pw/energy.cpp719 3.3067 0.4
./src_pw/energy.cpp719 2.3067 0.4
./src_pw/energy.cpp719 3.3067 0.4
./src_pw/energy.cpp719 6.3067 0.4
./src_pw/energy.cpp719 9.3067 0.4
./src_pw/energy.cpp719 6.3067 0.4
./src_pw/energy.cpp719 5.3067 0.4
./src_pw/energy.cpp719 6.3067 0.4
./src_pw/energy.cpp719 9.3067 0.4
./src_pw/energy.cpp719 8.0205 0.4
./src_pw/energy.cpp719 5.0205 0.4
./src_pw/energy.cpp719 4.0205 0.4
./src_pw/energy.cpp719 5.0205 0.4
./src_pw/energy.cpp719 8.0205 0.4
./src_pw/energy.cpp719 5.0205 0.4
./src_pw/energy.cpp719 2.0205 0.4
./src_pw/energy.cpp719 1.0205 0.4
./src_pw/energy.cpp719 2.0205 0.4
./src_pw/energy.cpp719 5.0205 0.4
./src_pw/energy.cpp719 4.0205 0.4
./src_pw/energy.cpp719 1.0205 0.4
./src_pw/energy.cpp719 0.020478 0.4
./src_pw/energy.cpp719 1.0205 0.4
./src_pw/energy.cpp719 4.0205 0.4
./src_pw/energy.cpp719 5.0205 0.4
./src_pw/energy.cpp719 2.0205 0.4
./src_pw/energy.cpp719 1.0205 0.4
./src_pw/energy.cpp719 2.0205 0.4
./src_pw/energy.cpp719 5.0205 0.4
./src_pw/energy.cpp719 8.0205 0.4
./src_pw/energy.cpp719 5.0205 0.4
./src_pw/energy.cpp719 4.0205 0.4
./src_pw/energy.cpp719 5.0205 0.4
./src_pw/energy.cpp719 8.0205 0.4
./src_pw/energy.cpp719 8.7343 0.4
./src_pw/energy.cpp719 5.7343 0.4
./src_pw/energy.cpp719 4.7343 0.4
./src_pw/energy.cpp719 5.7343 0.4
./src_pw/energy.cpp719 8.7343 0.4
./src_pw/energy.cpp719 5.7343 0.4
./src_pw/energy.cpp719 2.7343 0.4
./src_pw/energy.cpp719 1.7343 0.4
./src_pw/energy.cpp719 2.7343 0.4
./src_pw/energy.cpp719 5.7343 0.4
./src_pw/energy.cpp719 4.7343 0.4
./src_pw/energy.cpp719 1.7343 0.4
./src_pw/energy.cpp719 0.73428 0.4
./src_pw/energy.cpp719 1.7343 0.4
./src_pw/energy.cpp719 4.7343 0.4
./src_pw/energy.cpp719 5.7343 0.4
./src_pw/energy.cpp719 2.7343 0.4
./src_pw/energy.cpp719 1.7343 0.4
./src_pw/energy.cpp719 2.7343 0.4
./src_pw/energy.cpp719 5.7343 0.4
./src_pw/energy.cpp719 8.7343 0.4
./src_pw/energy.cpp719 5.7343 0.4
./src_pw/energy.cpp719 4.7343 0.4
./src_pw/energy.cpp719 5.7343 0.4
./src_pw/energy.cpp719 8.7343 0.4
./src_pw/energy.cpp719 11.448 0.4
./src_pw/energy.cpp719 8.4481 0.4
./src_pw/energy.cpp719 7.4481 0.4
./src_pw/energy.cpp719 8.4481 0.4
./src_pw/energy.cpp719 11.448 0.4
./src_pw/energy.cpp719 8.4481 0.4
./src_pw/energy.cpp719 5.4481 0.4
./src_pw/energy.cpp719 4.4481 0.4
./src_pw/energy.cpp719 5.4481 0.4
./src_pw/energy.cpp719 8.4481 0.4
./src_pw/energy.cpp719 7.4481 0.4
./src_pw/energy.cpp719 4.4481 0.4
./src_pw/energy.cpp719 3.4481 0.4
./src_pw/energy.cpp719 4.4481 0.4
./src_pw/energy.cpp719 7.4481 0.4
./src_pw/energy.cpp719 8.4481 0.4
./src_pw/energy.cpp719 5.4481 0.4
./src_pw/energy.cpp719 4.4481 0.4
./src_pw/energy.cpp719 5.4481 0.4
./src_pw/energy.cpp719 8.4481 0.4
./src_pw/energy.cpp719 11.448 0.4
./src_pw/energy.cpp719 8.4481 0.4
./src_pw/energy.cpp719 7.4481 0.4
./src_pw/energy.cpp719 8.4481 0.4
./src_pw/energy.cpp719 11.448 0.4
./src_pw/energy.cpp719 11.448 0.4
./src_pw/energy.cpp719 8.4481 0.4
./src_pw/energy.cpp719 7.4481 0.4
./src_pw/energy.cpp719 8.4481 0.4
./src_pw/energy.cpp719 11.448 0.4
./src_pw/energy.cpp719 8.4481 0.4
./src_pw/energy.cpp719 5.4481 0.4
./src_pw/energy.cpp719 4.4481 0.4
./src_pw/energy.cpp719 5.4481 0.4
./src_pw/energy.cpp719 8.4481 0.4
./src_pw/energy.cpp719 7.4481 0.4
./src_pw/energy.cpp719 4.4481 0.4
./src_pw/energy.cpp719 3.4481 0.4
./src_pw/energy.cpp719 4.4481 0.4
./src_pw/energy.cpp719 7.4481 0.4
./src_pw/energy.cpp719 8.4481 0.4
./src_pw/energy.cpp719 5.4481 0.4
./src_pw/energy.cpp719 4.4481 0.4
./src_pw/energy.cpp719 5.4481 0.4
./src_pw/energy.cpp719 8.4481 0.4
./src_pw/energy.cpp719 11.448 0.4
./src_pw/energy.cpp719 8.4481 0.4
./src_pw/energy.cpp719 7.4481 0.4
./src_pw/energy.cpp719 8.4481 0.4
./src_pw/energy.cpp719 11.448 0.4
./src_pw/energy.cpp719 8.7343 0.4
./src_pw/energy.cpp719 5.7343 0.4
./src_pw/energy.cpp719 4.7343 0.4
./src_pw/energy.cpp719 5.7343 0.4
./src_pw/energy.cpp719 8.7343 0.4
./src_pw/energy.cpp719 5.7343 0.4
./src_pw/energy.cpp719 2.7343 0.4
./src_pw/energy.cpp719 1.7343 0.4
./src_pw/energy.cpp719 2.7343 0.4
./src_pw/energy.cpp719 5.7343 0.4
./src_pw/energy.cpp719 4.7343 0.4
./src_pw/energy.cpp719 1.7343 0.4
./src_pw/energy.cpp719 0.73428 0.4
./src_pw/energy.cpp719 1.7343 0.4
./src_pw/energy.cpp719 4.7343 0.4
./src_pw/energy.cpp719 5.7343 0.4
./src_pw/energy.cpp719 2.7343 0.4
./src_pw/energy.cpp719 1.7343 0.4
./src_pw/energy.cpp719 2.7343 0.4
./src_pw/energy.cpp719 5.7343 0.4
./src_pw/energy.cpp719 8.7343 0.4
./src_pw/energy.cpp719 5.7343 0.4
./src_pw/energy.cpp719 4.7343 0.4
./src_pw/energy.cpp719 5.7343 0.4
./src_pw/energy.cpp719 8.7343 0.4
./src_pw/energy.cpp719 8.0205 0.4
./src_pw/energy.cpp719 5.0205 0.4
./src_pw/energy.cpp719 4.0205 0.4
./src_pw/energy.cpp719 5.0205 0.4
./src_pw/energy.cpp719 8.0205 0.4
./src_pw/energy.cpp719 5.0205 0.4
./src_pw/energy.cpp719 2.0205 0.4
./src_pw/energy.cpp719 1.0205 0.4
./src_pw/energy.cpp719 2.0205 0.4
./src_pw/energy.cpp719 5.0205 0.4
./src_pw/energy.cpp719 4.0205 0.4
./src_pw/energy.cpp719 1.0205 0.4
./src_pw/energy.cpp719 0.020478 0.4
./src_pw/energy.cpp719 1.0205 0.4
./src_pw/energy.cpp719 4.0205 0.4
./src_pw/energy.cpp719 5.0205 0.4
./src_pw/energy.cpp719 2.0205 0.4
./src_pw/energy.cpp719 1.0205 0.4
./src_pw/energy.cpp719 2.0205 0.4
./src_pw/energy.cpp719 5.0205 0.4
./src_pw/energy.cpp719 8.0205 0.4
./src_pw/energy.cpp719 5.0205 0.4
./src_pw/energy.cpp719 4.0205 0.4
./src_pw/energy.cpp719 5.0205 0.4
./src_pw/energy.cpp719 8.0205 0.4
./src_pw/energy.cpp719 9.3067 0.4
./src_pw/energy.cpp719 6.3067 0.4
./src_pw/energy.cpp719 5.3067 0.4
./src_pw/energy.cpp719 6.3067 0.4
./src_pw/energy.cpp719 9.3067 0.4
./src_pw/energy.cpp719 6.3067 0.4
./src_pw/energy.cpp719 3.3067 0.4
./src_pw/energy.cpp719 2.3067 0.4
./src_pw/energy.cpp719 3.3067 0.4
./src_pw/energy.cpp719 6.3067 0.4
./src_pw/energy.cpp719 5.3067 0.4
./src_pw/energy.cpp719 2.3067 0.4
./src_pw/energy.cpp719 1.3067 0.4
./src_pw/energy.cpp719 2.3067 0.4
./src_pw/energy.cpp719 5.3067 0.4
./src_pw/energy.cpp719 6.3067 0.4
./src_pw/energy.cpp719 3.3067 0.4
./src_pw/energy.cpp719 2.3067 0.4
./src_pw/energy.cpp719 3.3067 0.4
./src_pw/energy.cpp719 6.3067 0.4
./src_pw/energy.cpp719 9.3067 0.4
./src_pw/energy.cpp719 6.3067 0.4
./src_pw/energy.cpp719 5.3067 0.4
./src_pw/energy.cpp719 6.3067 0.4
./src_pw/energy.cpp719 9.3067 0.4
./src_pw/energy.cpp719 12.593 0.4
./src_pw/energy.cpp719 9.5929 0.4
./src_pw/energy.cpp719 8.5929 0.4
./src_pw/energy.cpp719 9.5929 0.4
./src_pw/energy.cpp719 12.593 0.4
./src_pw/energy.cpp719 9.5929 0.4
./src_pw/energy.cpp719 6.5929 0.4
./src_pw/energy.cpp719 5.5929 0.4
./src_pw/energy.cpp719 6.5929 0.4
./src_pw/energy.cpp719 9.5929 0.4
./src_pw/energy.cpp719 8.5929 0.4
./src_pw/energy.cpp719 5.5929 0.4
./src_pw/energy.cpp719 4.5929 0.4
./src_pw/energy.cpp719 5.5929 0.4
./src_pw/energy.cpp719 8.5929 0.4
./src_pw/energy.cpp719 9.5929 0.4
./src_pw/energy.cpp719 6.5929 0.4
./src_pw/energy.cpp719 5.5929 0.4
./src_pw/energy.cpp719 6.5929 0.4
./src_pw/energy.cpp719 9.5929 0.4
./src_pw/energy.cpp719 12.593 0.4
./src_pw/energy.cpp719 9.5929 0.4
./src_pw/energy.cpp719 8.5929 0.4
./src_pw/energy.cpp719 9.5929 0.4
./src_pw/energy.cpp719 12.593 0.4
./src_pw/energy.cpp719 12 0.4
./src_pw/energy.cpp719 9 0.4
./src_pw/energy.cpp719 8 0.4
./src_pw/energy.cpp719 9 0.4
./src_pw/energy.cpp719 12 0.4
./src_pw/energy.cpp719 9 0.4
./src_pw/energy.cpp719 6 0.4
./src_pw/energy.cpp719 5 0.4
./src_pw/energy.cpp719 6 0.4
./src_pw/energy.cpp719 9 0.4
./src_pw/energy.cpp719 8 0.4
./src_pw/energy.cpp719 5 0.4
./src_pw/energy.cpp719 4 0.4
./src_pw/energy.cpp719 5 0.4
./src_pw/energy.cpp719 8 0.4
./src_pw/energy.cpp719 9 0.4
./src_pw/energy.cpp719 6 0.4
./src_pw/energy.cpp719 5 0.4
./src_pw/energy.cpp719 6 0.4
./src_pw/energy.cpp719 9 0.4
./src_pw/energy.cpp719 12 0.4
./src_pw/energy.cpp719 9 0.4
./src_pw/energy.cpp719 8 0.4
./src_pw/energy.cpp719 9 0.4
./src_pw/energy.cpp719 12 0.4
./src_pw/energy.cpp719 9 0.4
./src_pw/energy.cpp719 6 0.4
./src_pw/energy.cpp719 5 0.4
./src_pw/energy.cpp719 6 0.4
./src_pw/energy.cpp719 9 0.4
./src_pw/energy.cpp719 6 0.4
./src_pw/energy.cpp719 3 0.4
./src_pw/energy.cpp719 2 0.4
./src_pw/energy.cpp719 3 0.4
./src_pw/energy.cpp719 6 0.4
./src_pw/energy.cpp719 5 0.4
./src_pw/energy.cpp719 2 0.4
./src_pw/energy.cpp719 1 0.4
./src_pw/energy.cpp719 2 0.4
./src_pw/energy.cpp719 5 0.4
./src_pw/energy.cpp719 6 0.4
./src_pw/energy.cpp719 3 0.4
./src_pw/energy.cpp719 2 0.4
./src_pw/energy.cpp719 3 0.4
./src_pw/energy.cpp719 6 0.4
./src_pw/energy.cpp719 9 0.4
./src_pw/energy.cpp719 6 0.4
./src_pw/energy.cpp719 5 0.4
./src_pw/energy.cpp719 6 0.4
./src_pw/energy.cpp719 9 0.4
./src_pw/energy.cpp719 8 0.4
./src_pw/energy.cpp719 5 0.4
./src_pw/energy.cpp719 4 0.4
./src_pw/energy.cpp719 5 0.4
./src_pw/energy.cpp719 8 0.4
./src_pw/energy.cpp719 5 0.4
./src_pw/energy.cpp719 2 0.4
./src_pw/energy.cpp719 1 0.4
./src_pw/energy.cpp719 2 0.4
./src_pw/energy.cpp719 5 0.4
./src_pw/energy.cpp719 4 0.4
./src_pw/energy.cpp719 1 0.4
./src_pw/energy.cpp719 0 0.4
./src_pw/energy.cpp719 1 0.4
./src_pw/energy.cpp719 4 0.4
./src_pw/energy.cpp719 5 0.4
./src_pw/energy.cpp719 2 0.4
./src_pw/energy.cpp719 1 0.4
./src_pw/energy.cpp719 2 0.4
./src_pw/energy.cpp719 5 0.4
./src_pw/energy.cpp719 8 0.4
./src_pw/energy.cpp719 5 0.4
./src_pw/energy.cpp719 4 0.4
./src_pw/energy.cpp719 5 0.4
./src_pw/energy.cpp719 8 0.4
./src_pw/energy.cpp719 9 0.4
./src_pw/energy.cpp719 6 0.4
./src_pw/energy.cpp719 5 0.4
./src_pw/energy.cpp719 6 0.4
./src_pw/energy.cpp719 9 0.4
./src_pw/energy.cpp719 6 0.4
./src_pw/energy.cpp719 3 0.4
./src_pw/energy.cpp719 2 0.4
./src_pw/energy.cpp719 3 0.4
./src_pw/energy.cpp719 6 0.4
./src_pw/energy.cpp719 5 0.4
./src_pw/energy.cpp719 2 0.4
./src_pw/energy.cpp719 1 0.4
./src_pw/energy.cpp719 2 0.4
./src_pw/energy.cpp719 5 0.4
./src_pw/energy.cpp719 6 0.4
./src_pw/energy.cpp719 3 0.4
./src_pw/energy.cpp719 2 0.4
./src_pw/energy.cpp719 3 0.4
./src_pw/energy.cpp719 6 0.4
./src_pw/energy.cpp719 9 0.4
./src_pw/energy.cpp719 6 0.4
./src_pw/energy.cpp719 5 0.4
./src_pw/energy.cpp719 6 0.4
./src_pw/energy.cpp719 9 0.4
./src_pw/energy.cpp719 12 0.4
./src_pw/energy.cpp719 9 0.4
./src_pw/energy.cpp719 8 0.4
./src_pw/energy.cpp719 9 0.4
./src_pw/energy.cpp719 12 0.4
./src_pw/energy.cpp719 9 0.4
./src_pw/energy.cpp719 6 0.4
./src_pw/energy.cpp719 5 0.4
./src_pw/energy.cpp719 6 0.4
./src_pw/energy.cpp719 9 0.4
./src_pw/energy.cpp719 8 0.4
./src_pw/energy.cpp719 5 0.4
./src_pw/energy.cpp719 4 0.4
./src_pw/energy.cpp719 5 0.4
./src_pw/energy.cpp719 8 0.4
./src_pw/energy.cpp719 9 0.4
./src_pw/energy.cpp719 6 0.4
./src_pw/energy.cpp719 5 0.4
./src_pw/energy.cpp719 6 0.4
./src_pw/energy.cpp719 9 0.4
./src_pw/energy.cpp719 12 0.4
./src_pw/energy.cpp719 9 0.4
./src_pw/energy.cpp719 8 0.4
./src_pw/energy.cpp719 9 0.4
./src_pw/energy.cpp719 12 0.4
./src_pw/energy.cpp719 12.516 0.4
./src_pw/energy.cpp719 9.5159 0.4
./src_pw/energy.cpp719 8.5159 0.4
./src_pw/energy.cpp719 9.5159 0.4
./src_pw/energy.cpp719 12.516 0.4
./src_pw/energy.cpp719 9.4052 0.4
./src_pw/energy.cpp719 6.4052 0.4
./src_pw/energy.cpp719 5.4052 0.4
./src_pw/energy.cpp719 6.4052 0.4
./src_pw/energy.cpp719 9.4052 0.4
./src_pw/energy.cpp719 8.2944 0.4
./src_pw/energy.cpp719 5.2944 0.4
./src_pw/energy.cpp719 4.2944 0.4
./src_pw/energy.cpp719 5.2944 0.4
./src_pw/energy.cpp719 8.2944 0.4
./src_pw/energy.cpp719 9.1836 0.4
./src_pw/energy.cpp719 6.1836 0.4
./src_pw/energy.cpp719 5.1836 0.4
./src_pw/energy.cpp719 6.1836 0.4
./src_pw/energy.cpp719 9.1836 0.4
./src_pw/energy.cpp719 12.073 0.4
./src_pw/energy.cpp719 9.0728 0.4
./src_pw/energy.cpp719 8.0728 0.4
./src_pw/energy.cpp719 9.0728 0.4
./src_pw/energy.cpp719 12.073 0.4
./src_pw/energy.cpp719 9.3728 0.4
./src_pw/energy.cpp719 6.3728 0.4
./src_pw/energy.cpp719 5.3728 0.4
./src_pw/energy.cpp719 6.3728 0.4
./src_pw/energy.cpp719 9.3728 0.4
./src_pw/energy.cpp719 6.2621 0.4
./src_pw/energy.cpp719 3.2621 0.4
./src_pw/energy.cpp719 2.2621 0.4
./src_pw/energy.cpp719 3.2621 0.4
./src_pw/energy.cpp719 6.2621 0.4
./src_pw/energy.cpp719 5.1513 0.4
./src_pw/energy.cpp719 2.1513 0.4
./src_pw/energy.cpp719 1.1513 0.4
./src_pw/energy.cpp719 2.1513 0.4
./src_pw/energy.cpp719 5.1513 0.4
./src_pw/energy.cpp719 6.0405 0.4
./src_pw/energy.cpp719 3.0405 0.4
./src_pw/energy.cpp719 2.0405 0.4
./src_pw/energy.cpp719 3.0405 0.4
./src_pw/energy.cpp719 6.0405 0.4
./src_pw/energy.cpp719 8.9297 0.4
./src_pw/energy.cpp719 5.9297 0.4
./src_pw/energy.cpp719 4.9297 0.4
./src_pw/energy.cpp719 5.9297 0.4
./src_pw/energy.cpp719 8.9297 0.4
./src_pw/energy.cpp719 8.2297 0.4
./src_pw/energy.cpp719 5.2297 0.4
./src_pw/energy.cpp719 4.2297 0.4
./src_pw/energy.cpp719 5.2297 0.4
./src_pw/energy.cpp719 8.2297 0.4
./src_pw/energy.cpp719 5.119 0.4
./src_pw/energy.cpp719 2.119 0.4
./src_pw/energy.cpp719 1.119 0.4
./src_pw/energy.cpp719 2.119 0.4
./src_pw/energy.cpp719 5.119 0.4
./src_pw/energy.cpp719 4.0082 0.4
./src_pw/energy.cpp719 1.0082 0.4
./src_pw/energy.cpp719 0.0081875 0.4
./src_pw/energy.cpp719 1.0082 0.4
./src_pw/energy.cpp719 4.0082 0.4
./src_pw/energy.cpp719 4.8974 0.4
./src_pw/energy.cpp719 1.8974 0.4
./src_pw/energy.cpp719 0.89741 0.4
./src_pw/energy.cpp719 1.8974 0.4
./src_pw/energy.cpp719 4.8974 0.4
./src_pw/energy.cpp719 7.7866 0.4
./src_pw/energy.cpp719 4.7866 0.4
./src_pw/energy.cpp719 3.7866 0.4
./src_pw/energy.cpp719 4.7866 0.4
./src_pw/energy.cpp719 7.7866 0.4
./src_pw/energy.cpp719 9.0866 0.4
./src_pw/energy.cpp719 6.0866 0.4
./src_pw/energy.cpp719 5.0866 0.4
./src_pw/energy.cpp719 6.0866 0.4
./src_pw/energy.cpp719 9.0866 0.4
./src_pw/energy.cpp719 5.9759 0.4
./src_pw/energy.cpp719 2.9759 0.4
./src_pw/energy.cpp719 1.9759 0.4
./src_pw/energy.cpp719 2.9759 0.4
./src_pw/energy.cpp719 5.9759 0.4
./src_pw/energy.cpp719 4.8651 0.4
./src_pw/energy.cpp719 1.8651 0.4
./src_pw/energy.cpp719 0.86509 0.4
./src_pw/energy.cpp719 1.8651 0.4
./src_pw/energy.cpp719 4.8651 0.4
./src_pw/energy.cpp719 5.7543 0.4
./src_pw/energy.cpp719 2.7543 0.4
./src_pw/energy.cpp719 1.7543 0.4
./src_pw/energy.cpp719 2.7543 0.4
./src_pw/energy.cpp719 5.7543 0.4
./src_pw/energy.cpp719 8.6435 0.4
./src_pw/energy.cpp719 5.6435 0.4
./src_pw/energy.cpp719 4.6435 0.4
./src_pw/energy.cpp719 5.6435 0.4
./src_pw/energy.cpp719 8.6435 0.4
./src_pw/energy.cpp719 11.944 0.4
./src_pw/energy.cpp719 8.9435 0.4
./src_pw/energy.cpp719 7.9435 0.4
./src_pw/energy.cpp719 8.9435 0.4
./src_pw/energy.cpp719 11.944 0.4
./src_pw/energy.cpp719 8.8328 0.4
./src_pw/energy.cpp719 5.8328 0.4
./src_pw/energy.cpp719 4.8328 0.4
./src_pw/energy.cpp719 5.8328 0.4
./src_pw/energy.cpp719 8.8328 0.4
./src_pw/energy.cpp719 7.722 0.4
./src_pw/energy.cpp719 4.722 0.4
./src_pw/energy.cpp719 3.722 0.4
./src_pw/energy.cpp719 4.722 0.4
./src_pw/energy.cpp719 7.722 0.4
./src_pw/energy.cpp719 8.6112 0.4
./src_pw/energy.cpp719 5.6112 0.4
./src_pw/energy.cpp719 4.6112 0.4
./src_pw/energy.cpp719 5.6112 0.4
./src_pw/energy.cpp719 8.6112 0.4
./src_pw/energy.cpp719 11.5 0.4
./src_pw/energy.cpp719 8.5004 0.4
./src_pw/energy.cpp719 7.5004 0.4
./src_pw/energy.cpp719 8.5004 0.4
./src_pw/energy.cpp719 11.5 0.4
./src_pw/energy.cpp719 11.944 0.4
./src_pw/energy.cpp719 8.9435 0.4
./src_pw/energy.cpp719 7.9435 0.4
./src_pw/energy.cpp719 8.9435 0.4
./src_pw/energy.cpp719 11.944 0.4
./src_pw/energy.cpp719 8.8328 0.4
./src_pw/energy.cpp719 5.8328 0.4
./src_pw/energy.cpp719 4.8328 0.4
./src_pw/energy.cpp719 5.8328 0.4
./src_pw/energy.cpp719 8.8328 0.4
./src_pw/energy.cpp719 7.722 0.4
./src_pw/energy.cpp719 4.722 0.4
./src_pw/energy.cpp719 3.722 0.4
./src_pw/energy.cpp719 4.722 0.4
./src_pw/energy.cpp719 7.722 0.4
./src_pw/energy.cpp719 8.6112 0.4
./src_pw/energy.cpp719 5.6112 0.4
./src_pw/energy.cpp719 4.6112 0.4
./src_pw/energy.cpp719 5.6112 0.4
./src_pw/energy.cpp719 8.6112 0.4
./src_pw/energy.cpp719 11.5 0.4
./src_pw/energy.cpp719 8.5004 0.4
./src_pw/energy.cpp719 7.5004 0.4
./src_pw/energy.cpp719 8.5004 0.4
./src_pw/energy.cpp719 11.5 0.4
./src_pw/energy.cpp719 9.0866 0.4
./src_pw/energy.cpp719 6.0866 0.4
./src_pw/energy.cpp719 5.0866 0.4
./src_pw/energy.cpp719 6.0866 0.4
./src_pw/energy.cpp719 9.0866 0.4
./src_pw/energy.cpp719 5.9759 0.4
./src_pw/energy.cpp719 2.9759 0.4
./src_pw/energy.cpp719 1.9759 0.4
./src_pw/energy.cpp719 2.9759 0.4
./src_pw/energy.cpp719 5.9759 0.4
./src_pw/energy.cpp719 4.8651 0.4
./src_pw/energy.cpp719 1.8651 0.4
./src_pw/energy.cpp719 0.86509 0.4
./src_pw/energy.cpp719 1.8651 0.4
./src_pw/energy.cpp719 4.8651 0.4
./src_pw/energy.cpp719 5.7543 0.4
./src_pw/energy.cpp719 2.7543 0.4
./src_pw/energy.cpp719 1.7543 0.4
./src_pw/energy.cpp719 2.7543 0.4
./src_pw/energy.cpp719 5.7543 0.4
./src_pw/energy.cpp719 8.6435 0.4
./src_pw/energy.cpp719 5.6435 0.4
./src_pw/energy.cpp719 4.6435 0.4
./src_pw/energy.cpp719 5.6435 0.4
./src_pw/energy.cpp719 8.6435 0.4
./src_pw/energy.cpp719 8.2297 0.4
./src_pw/energy.cpp719 5.2297 0.4
./src_pw/energy.cpp719 4.2297 0.4
./src_pw/energy.cpp719 5.2297 0.4
./src_pw/energy.cpp719 8.2297 0.4
./src_pw/energy.cpp719 5.119 0.4
./src_pw/energy.cpp719 2.119 0.4
./src_pw/energy.cpp719 1.119 0.4
./src_pw/energy.cpp719 2.119 0.4
./src_pw/energy.cpp719 5.119 0.4
./src_pw/energy.cpp719 4.0082 0.4
./src_pw/energy.cpp719 1.0082 0.4
./src_pw/energy.cpp719 0.0081875 0.4
./src_pw/energy.cpp719 1.0082 0.4
./src_pw/energy.cpp719 4.0082 0.4
./src_pw/energy.cpp719 4.8974 0.4
./src_pw/energy.cpp719 1.8974 0.4
./src_pw/energy.cpp719 0.89741 0.4
./src_pw/energy.cpp719 1.8974 0.4
./src_pw/energy.cpp719 4.8974 0.4
./src_pw/energy.cpp719 7.7866 0.4
./src_pw/energy.cpp719 4.7866 0.4
./src_pw/energy.cpp719 3.7866 0.4
./src_pw/energy.cpp719 4.7866 0.4
./src_pw/energy.cpp719 7.7866 0.4
./src_pw/energy.cpp719 9.3728 0.4
./src_pw/energy.cpp719 6.3728 0.4
./src_pw/energy.cpp719 5.3728 0.4
./src_pw/energy.cpp719 6.3728 0.4
./src_pw/energy.cpp719 9.3728 0.4
./src_pw/energy.cpp719 6.2621 0.4
./src_pw/energy.cpp719 3.2621 0.4
./src_pw/energy.cpp719 2.2621 0.4
./src_pw/energy.cpp719 3.2621 0.4
./src_pw/energy.cpp719 6.2621 0.4
./src_pw/energy.cpp719 5.1513 0.4
./src_pw/energy.cpp719 2.1513 0.4
./src_pw/energy.cpp719 1.1513 0.4
./src_pw/energy.cpp719 2.1513 0.4
./src_pw/energy.cpp719 5.1513 0.4
./src_pw/energy.cpp719 6.0405 0.4
./src_pw/energy.cpp719 3.0405 0.4
./src_pw/energy.cpp719 2.0405 0.4
./src_pw/energy.cpp719 3.0405 0.4
./src_pw/energy.cpp719 6.0405 0.4
./src_pw/energy.cpp719 8.9297 0.4
./src_pw/energy.cpp719 5.9297 0.4
./src_pw/energy.cpp719 4.9297 0.4
./src_pw/energy.cpp719 5.9297 0.4
./src_pw/energy.cpp719 8.9297 0.4
./src_pw/energy.cpp719 12.516 0.4
./src_pw/energy.cpp719 9.5159 0.4
./src_pw/energy.cpp719 8.5159 0.4
./src_pw/energy.cpp719 9.5159 0.4
./src_pw/energy.cpp719 12.516 0.4
./src_pw/energy.cpp719 9.4052 0.4
./src_pw/energy.cpp719 6.4052 0.4
./src_pw/energy.cpp719 5.4052 0.4
./src_pw/energy.cpp719 6.4052 0.4
./src_pw/energy.cpp719 9.4052 0.4
./src_pw/energy.cpp719 8.2944 0.4
./src_pw/energy.cpp719 5.2944 0.4
./src_pw/energy.cpp719 4.2944 0.4
./src_pw/energy.cpp719 5.2944 0.4
./src_pw/energy.cpp719 8.2944 0.4
./src_pw/energy.cpp719 9.1836 0.4
./src_pw/energy.cpp719 6.1836 0.4
./src_pw/energy.cpp719 5.1836 0.4
./src_pw/energy.cpp719 6.1836 0.4
./src_pw/energy.cpp719 9.1836 0.4
./src_pw/energy.cpp719 12.073 0.4
./src_pw/energy.cpp719 9.0728 0.4
./src_pw/energy.cpp719 8.0728 0.4
./src_pw/energy.cpp719 9.0728 0.4
./src_pw/energy.cpp719 12.073 0.4
./src_pw/energy.cpp719 11.5 0.4
./src_pw/energy.cpp719 8.5004 0.4
./src_pw/energy.cpp719 7.5004 0.4
./src_pw/energy.cpp719 8.5004 0.4
./src_pw/energy.cpp719 11.5 0.4
./src_pw/energy.cpp719 8.6112 0.4
./src_pw/energy.cpp719 5.6112 0.4
./src_pw/energy.cpp719 4.6112 0.4
./src_pw/energy.cpp719 5.6112 0.4
./src_pw/energy.cpp719 8.6112 0.4
./src_pw/energy.cpp719 7.722 0.4
./src_pw/energy.cpp719 4.722 0.4
./src_pw/energy.cpp719 3.722 0.4
./src_pw/energy.cpp719 4.722 0.4
./src_pw/energy.cpp719 7.722 0.4
./src_pw/energy.cpp719 8.8328 0.4
./src_pw/energy.cpp719 5.8328 0.4
./src_pw/energy.cpp719 4.8328 0.4
./src_pw/energy.cpp719 5.8328 0.4
./src_pw/energy.cpp719 8.8328 0.4
./src_pw/energy.cpp719 11.944 0.4
./src_pw/energy.cpp719 8.9435 0.4
./src_pw/energy.cpp719 7.9435 0.4
./src_pw/energy.cpp719 8.9435 0.4
./src_pw/energy.cpp719 11.944 0.4
./src_pw/energy.cpp719 8.6435 0.4
./src_pw/energy.cpp719 5.6435 0.4
./src_pw/energy.cpp719 4.6435 0.4
./src_pw/energy.cpp719 5.6435 0.4
./src_pw/energy.cpp719 8.6435 0.4
./src_pw/energy.cpp719 5.7543 0.4
./src_pw/energy.cpp719 2.7543 0.4
./src_pw/energy.cpp719 1.7543 0.4
./src_pw/energy.cpp719 2.7543 0.4
./src_pw/energy.cpp719 5.7543 0.4
./src_pw/energy.cpp719 4.8651 0.4
./src_pw/energy.cpp719 1.8651 0.4
./src_pw/energy.cpp719 0.86509 0.4
./src_pw/energy.cpp719 1.8651 0.4
./src_pw/energy.cpp719 4.8651 0.4
./src_pw/energy.cpp719 5.9759 0.4
./src_pw/energy.cpp719 2.9759 0.4
./src_pw/energy.cpp719 1.9759 0.4
./src_pw/energy.cpp719 2.9759 0.4
./src_pw/energy.cpp719 5.9759 0.4
./src_pw/energy.cpp719 9.0866 0.4
./src_pw/energy.cpp719 6.0866 0.4
./src_pw/energy.cpp719 5.0866 0.4
./src_pw/energy.cpp719 6.0866 0.4
./src_pw/energy.cpp719 9.0866 0.4
./src_pw/energy.cpp719 7.7866 0.4
./src_pw/energy.cpp719 4.7866 0.4
./src_pw/energy.cpp719 3.7866 0.4
./src_pw/energy.cpp719 4.7866 0.4
./src_pw/energy.cpp719 7.7866 0.4
./src_pw/energy.cpp719 4.8974 0.4
./src_pw/energy.cpp719 1.8974 0.4
./src_pw/energy.cpp719 0.89741 0.4
./src_pw/energy.cpp719 1.8974 0.4
./src_pw/energy.cpp719 4.8974 0.4
./src_pw/energy.cpp719 4.0082 0.4
./src_pw/energy.cpp719 1.0082 0.4
./src_pw/energy.cpp719 0.0081875 0.4
./src_pw/energy.cpp719 1.0082 0.4
./src_pw/energy.cpp719 4.0082 0.4
./src_pw/energy.cpp719 5.119 0.4
./src_pw/energy.cpp719 2.119 0.4
./src_pw/energy.cpp719 1.119 0.4
./src_pw/energy.cpp719 2.119 0.4
./src_pw/energy.cpp719 5.119 0.4
./src_pw/energy.cpp719 8.2297 0.4
./src_pw/energy.cpp719 5.2297 0.4
./src_pw/energy.cpp719 4.2297 0.4
./src_pw/energy.cpp719 5.2297 0.4
./src_pw/energy.cpp719 8.2297 0.4
./src_pw/energy.cpp719 8.9297 0.4
./src_pw/energy.cpp719 5.9297 0.4
./src_pw/energy.cpp719 4.9297 0.4
./src_pw/energy.cpp719 5.9297 0.4
./src_pw/energy.cpp719 8.9297 0.4
./src_pw/energy.cpp719 6.0405 0.4
./src_pw/energy.cpp719 3.0405 0.4
./src_pw/energy.cpp719 2.0405 0.4
./src_pw/energy.cpp719 3.0405 0.4
./src_pw/energy.cpp719 6.0405 0.4
./src_pw/energy.cpp719 5.1513 0.4
./src_pw/energy.cpp719 2.1513 0.4
./src_pw/energy.cpp719 1.1513 0.4
./src_pw/energy.cpp719 2.1513 0.4
./src_pw/energy.cpp719 5.1513 0.4
./src_pw/energy.cpp719 6.2621 0.4
./src_pw/energy.cpp719 3.2621 0.4
./src_pw/energy.cpp719 2.2621 0.4
./src_pw/energy.cpp719 3.2621 0.4
./src_pw/energy.cpp719 6.2621 0.4
./src_pw/energy.cpp719 9.3728 0.4
./src_pw/energy.cpp719 6.3728 0.4
./src_pw/energy.cpp719 5.3728 0.4
./src_pw/energy.cpp719 6.3728 0.4
./src_pw/energy.cpp719 9.3728 0.4
./src_pw/energy.cpp719 12.073 0.4
./src_pw/energy.cpp719 9.0728 0.4
./src_pw/energy.cpp719 8.0728 0.4
./src_pw/energy.cpp719 9.0728 0.4
./src_pw/energy.cpp719 12.073 0.4
./src_pw/energy.cpp719 9.1836 0.4
./src_pw/energy.cpp719 6.1836 0.4
./src_pw/energy.cpp719 5.1836 0.4
./src_pw/energy.cpp719 6.1836 0.4
./src_pw/energy.cpp719 9.1836 0.4
./src_pw/energy.cpp719 8.2944 0.4
./src_pw/energy.cpp719 5.2944 0.4
./src_pw/energy.cpp719 4.2944 0.4
./src_pw/energy.cpp719 5.2944 0.4
./src_pw/energy.cpp719 8.2944 0.4
./src_pw/energy.cpp719 9.4052 0.4
./src_pw/energy.cpp719 6.4052 0.4
./src_pw/energy.cpp719 5.4052 0.4
./src_pw/energy.cpp719 6.4052 0.4
./src_pw/energy.cpp719 9.4052 0.4
./src_pw/energy.cpp719 12.516 0.4
./src_pw/energy.cpp719 9.5159 0.4
./src_pw/energy.cpp719 8.5159 0.4
./src_pw/energy.cpp719 9.5159 0.4
./src_pw/energy.cpp719 12.516 0.4
./src_pw/energy.cpp719 12.073 0.4
./src_pw/energy.cpp719 9.0728 0.4
./src_pw/energy.cpp719 8.0728 0.4
./src_pw/energy.cpp719 9.0728 0.4
./src_pw/energy.cpp719 12.073 0.4
./src_pw/energy.cpp719 9.1836 0.4
./src_pw/energy.cpp719 6.1836 0.4
./src_pw/energy.cpp719 5.1836 0.4
./src_pw/energy.cpp719 6.1836 0.4
./src_pw/energy.cpp719 9.1836 0.4
./src_pw/energy.cpp719 8.2944 0.4
./src_pw/energy.cpp719 5.2944 0.4
./src_pw/energy.cpp719 4.2944 0.4
./src_pw/energy.cpp719 5.2944 0.4
./src_pw/energy.cpp719 8.2944 0.4
./src_pw/energy.cpp719 9.4052 0.4
./src_pw/energy.cpp719 6.4052 0.4
./src_pw/energy.cpp719 5.4052 0.4
./src_pw/energy.cpp719 6.4052 0.4
./src_pw/energy.cpp719 9.4052 0.4
./src_pw/energy.cpp719 12.516 0.4
./src_pw/energy.cpp719 9.5159 0.4
./src_pw/energy.cpp719 8.5159 0.4
./src_pw/energy.cpp719 9.5159 0.4
./src_pw/energy.cpp719 12.516 0.4
./src_pw/energy.cpp719 8.9297 0.4
./src_pw/energy.cpp719 5.9297 0.4
./src_pw/energy.cpp719 4.9297 0.4
./src_pw/energy.cpp719 5.9297 0.4
./src_pw/energy.cpp719 8.9297 0.4
./src_pw/energy.cpp719 6.0405 0.4
./src_pw/energy.cpp719 3.0405 0.4
./src_pw/energy.cpp719 2.0405 0.4
./src_pw/energy.cpp719 3.0405 0.4
./src_pw/energy.cpp719 6.0405 0.4
./src_pw/energy.cpp719 5.1513 0.4
./src_pw/energy.cpp719 2.1513 0.4
./src_pw/energy.cpp719 1.1513 0.4
./src_pw/energy.cpp719 2.1513 0.4
./src_pw/energy.cpp719 5.1513 0.4
./src_pw/energy.cpp719 6.2621 0.4
./src_pw/energy.cpp719 3.2621 0.4
./src_pw/energy.cpp719 2.2621 0.4
./src_pw/energy.cpp719 3.2621 0.4
./src_pw/energy.cpp719 6.2621 0.4
./src_pw/energy.cpp719 9.3728 0.4
./src_pw/energy.cpp719 6.3728 0.4
./src_pw/energy.cpp719 5.3728 0.4
./src_pw/energy.cpp719 6.3728 0.4
./src_pw/energy.cpp719 9.3728 0.4
./src_pw/energy.cpp719 7.7866 0.4
./src_pw/energy.cpp719 4.7866 0.4
./src_pw/energy.cpp719 3.7866 0.4
./src_pw/energy.cpp719 4.7866 0.4
./src_pw/energy.cpp719 7.7866 0.4
./src_pw/energy.cpp719 4.8974 0.4
./src_pw/energy.cpp719 1.8974 0.4
./src_pw/energy.cpp719 0.89741 0.4
./src_pw/energy.cpp719 1.8974 0.4
./src_pw/energy.cpp719 4.8974 0.4
./src_pw/energy.cpp719 4.0082 0.4
./src_pw/energy.cpp719 1.0082 0.4
./src_pw/energy.cpp719 0.0081875 0.4
./src_pw/energy.cpp719 1.0082 0.4
./src_pw/energy.cpp719 4.0082 0.4
./src_pw/energy.cpp719 5.119 0.4
./src_pw/energy.cpp719 2.119 0.4
./src_pw/energy.cpp719 1.119 0.4
./src_pw/energy.cpp719 2.119 0.4
./src_pw/energy.cpp719 5.119 0.4
./src_pw/energy.cpp719 8.2297 0.4
./src_pw/energy.cpp719 5.2297 0.4
./src_pw/energy.cpp719 4.2297 0.4
./src_pw/energy.cpp719 5.2297 0.4
./src_pw/energy.cpp719 8.2297 0.4
./src_pw/energy.cpp719 8.6435 0.4
./src_pw/energy.cpp719 5.6435 0.4
./src_pw/energy.cpp719 4.6435 0.4
./src_pw/energy.cpp719 5.6435 0.4
./src_pw/energy.cpp719 8.6435 0.4
./src_pw/energy.cpp719 5.7543 0.4
./src_pw/energy.cpp719 2.7543 0.4
./src_pw/energy.cpp719 1.7543 0.4
./src_pw/energy.cpp719 2.7543 0.4
./src_pw/energy.cpp719 5.7543 0.4
./src_pw/energy.cpp719 4.8651 0.4
./src_pw/energy.cpp719 1.8651 0.4
./src_pw/energy.cpp719 0.86509 0.4
./src_pw/energy.cpp719 1.8651 0.4
./src_pw/energy.cpp719 4.8651 0.4
./src_pw/energy.cpp719 5.9759 0.4
./src_pw/energy.cpp719 2.9759 0.4
./src_pw/energy.cpp719 1.9759 0.4
./src_pw/energy.cpp719 2.9759 0.4
./src_pw/energy.cpp719 5.9759 0.4
./src_pw/energy.cpp719 9.0866 0.4
./src_pw/energy.cpp719 6.0866 0.4
./src_pw/energy.cpp719 5.0866 0.4
./src_pw/energy.cpp719 6.0866 0.4
./src_pw/energy.cpp719 9.0866 0.4
./src_pw/energy.cpp719 11.5 0.4
./src_pw/energy.cpp719 8.5004 0.4
./src_pw/energy.cpp719 7.5004 0.4
./src_pw/energy.cpp719 8.5004 0.4
./src_pw/energy.cpp719 11.5 0.4
./src_pw/energy.cpp719 8.6112 0.4
./src_pw/energy.cpp719 5.6112 0.4
./src_pw/energy.cpp719 4.6112 0.4
./src_pw/energy.cpp719 5.6112 0.4
./src_pw/energy.cpp719 8.6112 0.4
./src_pw/energy.cpp719 7.722 0.4
./src_pw/energy.cpp719 4.722 0.4
./src_pw/energy.cpp719 3.722 0.4
./src_pw/energy.cpp719 4.722 0.4
./src_pw/energy.cpp719 7.722 0.4
./src_pw/energy.cpp719 8.8328 0.4
./src_pw/energy.cpp719 5.8328 0.4
./src_pw/energy.cpp719 4.8328 0.4
./src_pw/energy.cpp719 5.8328 0.4
./src_pw/energy.cpp719 8.8328 0.4
./src_pw/energy.cpp719 11.944 0.4
./src_pw/energy.cpp719 8.9435 0.4
./src_pw/energy.cpp719 7.9435 0.4
./src_pw/energy.cpp719 8.9435 0.4
./src_pw/energy.cpp719 11.944 0.4
./src_pw/energy.cpp719 12 0.4
./src_pw/energy.cpp719 9 0.4
./src_pw/energy.cpp719 8 0.4
./src_pw/energy.cpp719 9 0.4
./src_pw/energy.cpp719 12 0.4
./src_pw/energy.cpp719 9 0.4
./src_pw/energy.cpp719 6 0.4
./src_pw/energy.cpp719 5 0.4
./src_pw/energy.cpp719 6 0.4
./src_pw/energy.cpp719 9 0.4
./src_pw/energy.cpp719 8 0.4
./src_pw/energy.cpp719 5 0.4
./src_pw/energy.cpp719 4 0.4
./src_pw/energy.cpp719 5 0.4
./src_pw/energy.cpp719 8 0.4
./src_pw/energy.cpp719 9 0.4
./src_pw/energy.cpp719 6 0.4
./src_pw/energy.cpp719 5 0.4
./src_pw/energy.cpp719 6 0.4
./src_pw/energy.cpp719 9 0.4
./src_pw/energy.cpp719 12 0.4
./src_pw/energy.cpp719 9 0.4
./src_pw/energy.cpp719 8 0.4
./src_pw/energy.cpp719 9 0.4
./src_pw/energy.cpp719 12 0.4
./src_pw/energy.cpp719 9 0.4
./src_pw/energy.cpp719 6 0.4
./src_pw/energy.cpp719 5 0.4
./src_pw/energy.cpp719 6 0.4
./src_pw/energy.cpp719 9 0.4
./src_pw/energy.cpp719 6 0.4
./src_pw/energy.cpp719 3 0.4
./src_pw/energy.cpp719 2 0.4
./src_pw/energy.cpp719 3 0.4
./src_pw/energy.cpp719 6 0.4
./src_pw/energy.cpp719 5 0.4
./src_pw/energy.cpp719 2 0.4
./src_pw/energy.cpp719 1 0.4
./src_pw/energy.cpp719 2 0.4
./src_pw/energy.cpp719 5 0.4
./src_pw/energy.cpp719 6 0.4
./src_pw/energy.cpp719 3 0.4
./src_pw/energy.cpp719 2 0.4
./src_pw/energy.cpp719 3 0.4
./src_pw/energy.cpp719 6 0.4
./src_pw/energy.cpp719 9 0.4
./src_pw/energy.cpp719 6 0.4
./src_pw/energy.cpp719 5 0.4
./src_pw/energy.cpp719 6 0.4
./src_pw/energy.cpp719 9 0.4
./src_pw/energy.cpp719 8 0.4
./src_pw/energy.cpp719 5 0.4
./src_pw/energy.cpp719 4 0.4
./src_pw/energy.cpp719 5 0.4
./src_pw/energy.cpp719 8 0.4
./src_pw/energy.cpp719 5 0.4
./src_pw/energy.cpp719 2 0.4
./src_pw/energy.cpp719 1 0.4
./src_pw/energy.cpp719 2 0.4
./src_pw/energy.cpp719 5 0.4
./src_pw/energy.cpp719 4 0.4
./src_pw/energy.cpp719 1 0.4
./src_pw/energy.cpp719 0 0.4
./src_pw/energy.cpp719 1 0.4
./src_pw/energy.cpp719 4 0.4
./src_pw/energy.cpp719 5 0.4
./src_pw/energy.cpp719 2 0.4
./src_pw/energy.cpp719 1 0.4
./src_pw/energy.cpp719 2 0.4
./src_pw/energy.cpp719 5 0.4
./src_pw/energy.cpp719 8 0.4
./src_pw/energy.cpp719 5 0.4
./src_pw/energy.cpp719 4 0.4
./src_pw/energy.cpp719 5 0.4
./src_pw/energy.cpp719 8 0.4
./src_pw/energy.cpp719 9 0.4
./src_pw/energy.cpp719 6 0.4
./src_pw/energy.cpp719 5 0.4
./src_pw/energy.cpp719 6 0.4
./src_pw/energy.cpp719 9 0.4
./src_pw/energy.cpp719 6 0.4
./src_pw/energy.cpp719 3 0.4
./src_pw/energy.cpp719 2 0.4
./src_pw/energy.cpp719 3 0.4
./src_pw/energy.cpp719 6 0.4
./src_pw/energy.cpp719 5 0.4
./src_pw/energy.cpp719 2 0.4
./src_pw/energy.cpp719 1 0.4
./src_pw/energy.cpp719 2 0.4
./src_pw/energy.cpp719 5 0.4
./src_pw/energy.cpp719 6 0.4
./src_pw/energy.cpp719 3 0.4
./src_pw/energy.cpp719 2 0.4
./src_pw/energy.cpp719 3 0.4
./src_pw/energy.cpp719 6 0.4
./src_pw/energy.cpp719 9 0.4
./src_pw/energy.cpp719 6 0.4
./src_pw/energy.cpp719 5 0.4
./src_pw/energy.cpp719 6 0.4
./src_pw/energy.cpp719 9 0.4
./src_pw/energy.cpp719 12 0.4
./src_pw/energy.cpp719 9 0.4
./src_pw/energy.cpp719 8 0.4
./src_pw/energy.cpp719 9 0.4
./src_pw/energy.cpp719 12 0.4
./src_pw/energy.cpp719 9 0.4
./src_pw/energy.cpp719 6 0.4
./src_pw/energy.cpp719 5 0.4
./src_pw/energy.cpp719 6 0.4
./src_pw/energy.cpp719 9 0.4
./src_pw/energy.cpp719 8 0.4
./src_pw/energy.cpp719 5 0.4
./src_pw/energy.cpp719 4 0.4
./src_pw/energy.cpp719 5 0.4
./src_pw/energy.cpp719 8 0.4
./src_pw/energy.cpp719 9 0.4
./src_pw/energy.cpp719 6 0.4
./src_pw/energy.cpp719 5 0.4
./src_pw/energy.cpp719 6 0.4
./src_pw/energy.cpp719 9 0.4
./src_pw/energy.cpp719 12 0.4
./src_pw/energy.cpp719 9 0.4
./src_pw/energy.cpp719 8 0.4
./src_pw/energy.cpp719 9 0.4
./src_pw/energy.cpp719 12 0.4
 ITER   ETOT(eV)       EDIFF(eV)      DRHO2      CG_ITER    TIME(S)    
 CG1    -3.750258e+02  0.000000e+00   6.312e-01  4.000e+00  4.000e-02  
 CG2    -3.764207e+02  -1.394864e+00  3.801e-02  2.500e+00  3.000e-02  
 CG3    -3.765212e+02  -1.005567e-01  3.074e-03  2.667e+00  3.000e-02  
 CG4    -3.765297e+02  -8.462055e-03  1.834e-04  2.833e+00  3.000e-02  
 CG5    -3.765302e+02  -5.373979e-04  1.432e-05  3.167e+00  3.000e-02  
 CG6    -3.765303e+02  -4.632737e-05  9.686e-07  3.000e+00  3.000e-02  
 CG7    -3.765303e+02  -3.133524e-06  7.460e-08  3.000e+00  4.000e-02  
 CG8    -3.765303e+02  -2.969393e-07  4.396e-09  3.167e+00  3.000e-02  
 CG9    -3.765303e+02  -1.710763e-08  3.559e-10  2.667e+00  3.000e-02  
./src_pw/energy.cpp719 1.259e+01 5.000e-01
./src_pw/energy.cpp719 9.593e+00 5.000e-01
./src_pw/energy.cpp719 8.593e+00 5.000e-01
./src_pw/energy.cpp719 9.593e+00 5.000e-01
./src_pw/energy.cpp719 1.259e+01 5.000e-01
./src_pw/energy.cpp719 9.593e+00 5.000e-01
./src_pw/energy.cpp719 6.593e+00 5.000e-01
./src_pw/energy.cpp719 5.593e+00 5.000e-01
./src_pw/energy.cpp719 6.593e+00 5.000e-01
./src_pw/energy.cpp719 9.593e+00 5.000e-01
./src_pw/energy.cpp719 8.593e+00 5.000e-01
./src_pw/energy.cpp719 5.593e+00 5.000e-01
./src_pw/energy.cpp719 4.593e+00 5.000e-01
./src_pw/energy.cpp719 5.593e+00 5.000e-01
./src_pw/energy.cpp719 8.593e+00 5.000e-01
./src_pw/energy.cpp719 9.593e+00 5.000e-01
./src_pw/energy.cpp719 6.593e+00 5.000e-01
./src_pw/energy.cpp719 5.593e+00 5.000e-01
./src_pw/energy.cpp719 6.593e+00 5.000e-01
./src_pw/energy.cpp719 9.593e+00 5.000e-01
./src_pw/energy.cpp719 1.259e+01 5.000e-01
./src_pw/energy.cpp719 9.593e+00 5.000e-01
./src_pw/energy.cpp719 8.593e+00 5.000e-01
./src_pw/energy.cpp719 9.593e+00 5.000e-01
./src_pw/energy.cpp719 1.259e+01 5.000e-01
./src_pw/energy.cpp719 9.307e+00 5.000e-01
./src_pw/energy.cpp719 6.307e+00 5.000e-01
./src_pw/energy.cpp719 5.307e+00 5.000e-01
./src_pw/energy.cpp719 6.307e+00 5.000e-01
./src_pw/energy.cpp719 9.307e+00 5.000e-01
./src_pw/energy.cpp719 6.307e+00 5.000e-01
./src_pw/energy.cpp719 3.307e+00 5.000e-01
./src_pw/energy.cpp719 2.307e+00 5.000e-01
./src_pw/energy.cpp719 3.307e+00 5.000e-01
./src_pw/energy.cpp719 6.307e+00 5.000e-01
./src_pw/energy.cpp719 5.307e+00 5.000e-01
./src_pw/energy.cpp719 2.307e+00 5.000e-01
./src_pw/energy.cpp719 1.307e+00 5.000e-01
./src_pw/energy.cpp719 2.307e+00 5.000e-01
./src_pw/energy.cpp719 5.307e+00 5.000e-01
./src_pw/energy.cpp719 6.307e+00 5.000e-01
./src_pw/energy.cpp719 3.307e+00 5.000e-01
./src_pw/energy.cpp719 2.307e+00 5.000e-01
./src_pw/energy.cpp719 3.307e+00 5.000e-01
./src_pw/energy.cpp719 6.307e+00 5.000e-01
./src_pw/energy.cpp719 9.307e+00 5.000e-01
./src_pw/energy.cpp719 6.307e+00 5.000e-01
./src_pw/energy.cpp719 5.307e+00 5.000e-01
./src_pw/energy.cpp719 6.307e+00 5.000e-01
./src_pw/energy.cpp719 9.307e+00 5.000e-01
./src_pw/energy.cpp719 8.020e+00 5.000e-01
./src_pw/energy.cpp719 5.020e+00 5.000e-01
./src_pw/energy.cpp719 4.020e+00 5.000e-01
./src_pw/energy.cpp719 5.020e+00 5.000e-01
./src_pw/energy.cpp719 8.020e+00 5.000e-01
./src_pw/energy.cpp719 5.020e+00 5.000e-01
./src_pw/energy.cpp719 2.020e+00 5.000e-01
./src_pw/energy.cpp719 1.020e+00 5.000e-01
./src_pw/energy.cpp719 2.020e+00 5.000e-01
./src_pw/energy.cpp719 5.020e+00 5.000e-01
./src_pw/energy.cpp719 4.020e+00 5.000e-01
./src_pw/energy.cpp719 1.020e+00 5.000e-01
./src_pw/energy.cpp719 2.048e-02 5.000e-01
./src_pw/energy.cpp719 1.020e+00 5.000e-01
./src_pw/energy.cpp719 4.020e+00 5.000e-01
./src_pw/energy.cpp719 5.020e+00 5.000e-01
./src_pw/energy.cpp719 2.020e+00 5.000e-01
./src_pw/energy.cpp719 1.020e+00 5.000e-01
./src_pw/energy.cpp719 2.020e+00 5.000e-01
./src_pw/energy.cpp719 5.020e+00 5.000e-01
./src_pw/energy.cpp719 8.020e+00 5.000e-01
./src_pw/energy.cpp719 5.020e+00 5.000e-01
./src_pw/energy.cpp719 4.020e+00 5.000e-01
./src_pw/energy.cpp719 5.020e+00 5.000e-01
./src_pw/energy.cpp719 8.020e+00 5.000e-01
./src_pw/energy.cpp719 8.734e+00 5.000e-01
./src_pw/energy.cpp719 5.734e+00 5.000e-01
./src_pw/energy.cpp719 4.734e+00 5.000e-01
./src_pw/energy.cpp719 5.734e+00 5.000e-01
./src_pw/energy.cpp719 8.734e+00 5.000e-01
./src_pw/energy.cpp719 5.734e+00 5.000e-01
./src_pw/energy.cpp719 2.734e+00 5.000e-01
./src_pw/energy.cpp719 1.734e+00 5.000e-01
./src_pw/energy.cpp719 2.734e+00 5.000e-01
./src_pw/energy.cpp719 5.734e+00 5.000e-01
./src_pw/energy.cpp719 4.734e+00 5.000e-01
./src_pw/energy.cpp719 1.734e+00 5.000e-01
./src_pw/energy.cpp719 7.343e-01 5.000e-01
./src_pw/energy.cpp719 1.734e+00 5.000e-01
./src_pw/energy.cpp719 4.734e+00 5.000e-01
./src_pw/energy.cpp719 5.734e+00 5.000e-01
./src_pw/energy.cpp719 2.734e+00 5.000e-01
./src_pw/energy.cpp719 1.734e+00 5.000e-01
./src_pw/energy.cpp719 2.734e+00 5.000e-01
./src_pw/energy.cpp719 5.734e+00 5.000e-01
./src_pw/energy.cpp719 8.734e+00 5.000e-01
./src_pw/energy.cpp719 5.734e+00 5.000e-01
./src_pw/energy.cpp719 4.734e+00 5.000e-01
./src_pw/energy.cpp719 5.734e+00 5.000e-01
./src_pw/energy.cpp719 8.734e+00 5.000e-01
./src_pw/energy.cpp719 1.145e+01 5.000e-01
./src_pw/energy.cpp719 8.448e+00 5.000e-01
./src_pw/energy.cpp719 7.448e+00 5.000e-01
./src_pw/energy.cpp719 8.448e+00 5.000e-01
./src_pw/energy.cpp719 1.145e+01 5.000e-01
./src_pw/energy.cpp719 8.448e+00 5.000e-01
./src_pw/energy.cpp719 5.448e+00 5.000e-01
./src_pw/energy.cpp719 4.448e+00 5.000e-01
./src_pw/energy.cpp719 5.448e+00 5.000e-01
./src_pw/energy.cpp719 8.448e+00 5.000e-01
./src_pw/energy.cpp719 7.448e+00 5.000e-01
./src_pw/energy.cpp719 4.448e+00 5.000e-01
./src_pw/energy.cpp719 3.448e+00 5.000e-01
./src_pw/energy.cpp719 4.448e+00 5.000e-01
./src_pw/energy.cpp719 7.448e+00 5.000e-01
./src_pw/energy.cpp719 8.448e+00 5.000e-01
./src_pw/energy.cpp719 5.448e+00 5.000e-01
./src_pw/energy.cpp719 4.448e+00 5.000e-01
./src_pw/energy.cpp719 5.448e+00 5.000e-01
./src_pw/energy.cpp719 8.448e+00 5.000e-01
./src_pw/energy.cpp719 1.145e+01 5.000e-01
./src_pw/energy.cpp719 8.448e+00 5.000e-01
./src_pw/energy.cpp719 7.448e+00 5.000e-01
./src_pw/energy.cpp719 8.448e+00 5.000e-01
./src_pw/energy.cpp719 1.145e+01 5.000e-01
./src_pw/energy.cpp719 1.252e+01 5.000e-01
./src_pw/energy.cpp719 9.516e+00 5.000e-01
./src_pw/energy.cpp719 8.516e+00 5.000e-01
./src_pw/energy.cpp719 9.516e+00 5.000e-01
./src_pw/energy.cpp719 1.252e+01 5.000e-01
./src_pw/energy.cpp719 9.405e+00 5.000e-01
./src_pw/energy.cpp719 6.405e+00 5.000e-01
./src_pw/energy.cpp719 5.405e+00 5.000e-01
./src_pw/energy.cpp719 6.405e+00 5.000e-01
./src_pw/energy.cpp719 9.405e+00 5.000e-01
./src_pw/energy.cpp719 8.294e+00 5.000e-01
./src_pw/energy.cpp719 5.294e+00 5.000e-01
./src_pw/energy.cpp719 4.294e+00 5.000e-01
./src_pw/energy.cpp719 5.294e+00 5.000e-01
./src_pw/energy.cpp719 8.294e+00 5.000e-01
./src_pw/energy.cpp719 9.184e+00 5.000e-01
./src_pw/energy.cpp719 6.184e+00 5.000e-01
./src_pw/energy.cpp719 5.184e+00 5.000e-01
./src_pw/energy.cpp719 6.184e+00 5.000e-01
./src_pw/energy.cpp719 9.184e+00 5.000e-01
./src_pw/energy.cpp719 1.207e+01 5.000e-01
./src_pw/energy.cpp719 9.073e+00 5.000e-01
./src_pw/energy.cpp719 8.073e+00 5.000e-01
./src_pw/energy.cpp719 9.073e+00 5.000e-01
./src_pw/energy.cpp719 1.207e+01 5.000e-01
./src_pw/energy.cpp719 9.373e+00 5.000e-01
./src_pw/energy.cpp719 6.373e+00 5.000e-01
./src_pw/energy.cpp719 5.373e+00 5.000e-01
./src_pw/energy.cpp719 6.373e+00 5.000e-01
./src_pw/energy.cpp719 9.373e+00 5.000e-01
./src_pw/energy.cpp719 6.262e+00 5.000e-01
./src_pw/energy.cpp719 3.262e+00 5.000e-01
./src_pw/energy.cpp719 2.262e+00 5.000e-01
./src_pw/energy.cpp719 3.262e+00 5.000e-01
./src_pw/energy.cpp719 6.262e+00 5.000e-01
./src_pw/energy.cpp719 5.151e+00 5.000e-01
./src_pw/energy.cpp719 2.151e+00 5.000e-01
./src_pw/energy.cpp719 1.151e+00 5.000e-01
./src_pw/energy.cpp719 2.151e+00 5.000e-01
./src_pw/energy.cpp719 5.151e+00 5.000e-01
./src_pw/energy.cpp719 6.041e+00 5.000e-01
./src_pw/energy.cpp719 3.041e+00 5.000e-01
./src_pw/energy.cpp719 2.041e+00 5.000e-01
./src_pw/energy.cpp719 3.041e+00 5.000e-01
./src_pw/energy.cpp719 6.041e+00 5.000e-01
./src_pw/energy.cpp719 8.930e+00 5.000e-01
./src_pw/energy.cpp719 5.930e+00 5.000e-01
./src_pw/energy.cpp719 4.930e+00 5.000e-01
./src_pw/energy.cpp719 5.930e+00 5.000e-01
./src_pw/energy.cpp719 8.930e+00 5.000e-01
./src_pw/energy.cpp719 8.230e+00 5.000e-01
./src_pw/energy.cpp719 5.230e+00 5.000e-01
./src_pw/energy.cpp719 4.230e+00 5.000e-01
./src_pw/energy.cpp719 5.230e+00 5.000e-01
./src_pw/energy.cpp719 8.230e+00 5.000e-01
./src_pw/energy.cpp719 5.119e+00 5.000e-01
./src_pw/energy.cpp719 2.119e+00 5.000e-01
./src_pw/energy.cpp719 1.119e+00 5.000e-01
./src_pw/energy.cpp719 2.119e+00 5.000e-01
./src_pw/energy.cpp719 5.119e+00 5.000e-01
./src_pw/energy.cpp719 4.008e+00 5.000e-01
./src_pw/energy.cpp719 1.008e+00 5.000e-01
./src_pw/energy.cpp719 8.187e-03 5.000e-01
./src_pw/energy.cpp719 1.008e+00 5.000e-01
./src_pw/energy.cpp719 4.008e+00 5.000e-01
./src_pw/energy.cpp719 4.897e+00 5.000e-01
./src_pw/energy.cpp719 1.897e+00 5.000e-01
./src_pw/energy.cpp719 8.974e-01 5.000e-01
./src_pw/energy.cpp719 1.897e+00 5.000e-01
./src_pw/energy.cpp719 4.897e+00 5.000e-01
./src_pw/energy.cpp719 7.787e+00 5.000e-01
./src_pw/energy.cpp719 4.787e+00 5.000e-01
./src_pw/energy.cpp719 3.787e+00 5.000e-01
./src_pw/energy.cpp719 4.787e+00 5.000e-01
./src_pw/energy.cpp719 7.787e+00 5.000e-01
./src_pw/energy.cpp719 9.087e+00 5.000e-01
./src_pw/energy.cpp719 6.087e+00 5.000e-01
./src_pw/energy.cpp719 5.087e+00 5.000e-01
./src_pw/energy.cpp719 6.087e+00 5.000e-01
./src_pw/energy.cpp719 9.087e+00 5.000e-01
./src_pw/energy.cpp719 5.976e+00 5.000e-01
./src_pw/energy.cpp719 2.976e+00 5.000e-01
./src_pw/energy.cpp719 1.976e+00 5.000e-01
./src_pw/energy.cpp719 2.976e+00 5.000e-01
./src_pw/energy.cpp719 5.976e+00 5.000e-01
./src_pw/energy.cpp719 4.865e+00 5.000e-01
./src_pw/energy.cpp719 1.865e+00 5.000e-01
./src_pw/energy.cpp719 8.651e-01 5.000e-01
./src_pw/energy.cpp719 1.865e+00 5.000e-01
./src_pw/energy.cpp719 4.865e+00 5.000e-01
./src_pw/energy.cpp719 5.754e+00 5.000e-01
./src_pw/energy.cpp719 2.754e+00 5.000e-01
./src_pw/energy.cpp719 1.754e+00 5.000e-01
./src_pw/energy.cpp719 2.754e+00 5.000e-01
./src_pw/energy.cpp719 5.754e+00 5.000e-01
./src_pw/energy.cpp719 8.644e+00 5.000e-01
./src_pw/energy.cpp719 5.644e+00 5.000e-01
./src_pw/energy.cpp719 4.644e+00 5.000e-01
./src_pw/energy.cpp719 5.644e+00 5.000e-01
./src_pw/energy.cpp719 8.644e+00 5.000e-01
./src_pw/energy.cpp719 1.194e+01 5.000e-01
./src_pw/energy.cpp719 8.944e+00 5.000e-01
./src_pw/energy.cpp719 7.944e+00 5.000e-01
./src_pw/energy.cpp719 8.944e+00 5.000e-01
./src_pw/energy.cpp719 1.194e+01 5.000e-01
./src_pw/energy.cpp719 8.833e+00 5.000e-01
./src_pw/energy.cpp719 5.833e+00 5.000e-01
./src_pw/energy.cpp719 4.833e+00 5.000e-01
./src_pw/energy.cpp719 5.833e+00 5.000e-01
./src_pw/energy.cpp719 8.833e+00 5.000e-01
./src_pw/energy.cpp719 7.722e+00 5.000e-01
./src_pw/energy.cpp719 4.722e+00 5.000e-01
./src_pw/energy.cpp719 3.722e+00 5.000e-01
./src_pw/energy.cpp719 4.722e+00 5.000e-01
./src_pw/energy.cpp719 7.722e+00 5.000e-01
./src_pw/energy.cpp719 8.611e+00 5.000e-01
./src_pw/energy.cpp719 5.611e+00 5.000e-01
./src_pw/energy.cpp719 4.611e+00 5.000e-01
./src_pw/energy.cpp719 5.611e+00 5.000e-01
./src_pw/energy.cpp719 8.611e+00 5.000e-01
./src_pw/energy.cpp719 1.150e+01 5.000e-01
./src_pw/energy.cpp719 8.500e+00 5.000e-01
./src_pw/energy.cpp719 7.500e+00 5.000e-01
./src_pw/energy.cpp719 8.500e+00 5.000e-01
./src_pw/energy.cpp719 1.150e+01 5.000e-01
./src_pw/energy.cpp719 1.145e+01 5.000e-01
./src_pw/energy.cpp719 8.448e+00 5.000e-01
./src_pw/energy.cpp719 7.448e+00 5.000e-01
./src_pw/energy.cpp719 8.448e+00 5.000e-01
./src_pw/energy.cpp719 1.145e+01 5.000e-01
./src_pw/energy.cpp719 8.448e+00 5.000e-01
./src_pw/energy.cpp719 5.448e+00 5.000e-01
./src_pw/energy.cpp719 4.448e+00 5.000e-01
./src_pw/energy.cpp719 5.448e+00 5.000e-01
./src_pw/energy.cpp719 8.448e+00 5.000e-01
./src_pw/energy.cpp719 7.448e+00 5.000e-01
./src_pw/energy.cpp719 4.448e+00 5.000e-01
./src_pw/energy.cpp719 3.448e+00 5.000e-01
./src_pw/energy.cpp719 4.448e+00 5.000e-01
./src_pw/energy.cpp719 7.448e+00 5.000e-01
./src_pw/energy.cpp719 8.448e+00 5.000e-01
./src_pw/energy.cpp719 5.448e+00 5.000e-01
./src_pw/energy.cpp719 4.448e+00 5.000e-01
./src_pw/energy.cpp719 5.448e+00 5.000e-01
./src_pw/energy.cpp719 8.448e+00 5.000e-01
./src_pw/energy.cpp719 1.145e+01 5.000e-01
./src_pw/energy.cpp719 8.448e+00 5.000e-01
./src_pw/energy.cpp719 7.448e+00 5.000e-01
./src_pw/energy.cpp719 8.448e+00 5.000e-01
./src_pw/energy.cpp719 1.145e+01 5.000e-01
./src_pw/energy.cpp719 8.734e+00 5.000e-01
./src_pw/energy.cpp719 5.734e+00 5.000e-01
./src_pw/energy.cpp719 4.734e+00 5.000e-01
./src_pw/energy.cpp719 5.734e+00 5.000e-01
./src_pw/energy.cpp719 8.734e+00 5.000e-01
./src_pw/energy.cpp719 5.734e+00 5.000e-01
./src_pw/energy.cpp719 2.734e+00 5.000e-01
./src_pw/energy.cpp719 1.734e+00 5.000e-01
./src_pw/energy.cpp719 2.734e+00 5.000e-01
./src_pw/energy.cpp719 5.734e+00 5.000e-01
./src_pw/energy.cpp719 4.734e+00 5.000e-01
./src_pw/energy.cpp719 1.734e+00 5.000e-01
./src_pw/energy.cpp719 7.343e-01 5.000e-01
./src_pw/energy.cpp719 1.734e+00 5.000e-01
./src_pw/energy.cpp719 4.734e+00 5.000e-01
./src_pw/energy.cpp719 5.734e+00 5.000e-01
./src_pw/energy.cpp719 2.734e+00 5.000e-01
./src_pw/energy.cpp719 1.734e+00 5.000e-01
./src_pw/energy.cpp719 2.734e+00 5.000e-01
./src_pw/energy.cpp719 5.734e+00 5.000e-01
./src_pw/energy.cpp719 8.734e+00 5.000e-01
./src_pw/energy.cpp719 5.734e+00 5.000e-01
./src_pw/energy.cpp719 4.734e+00 5.000e-01
./src_pw/energy.cpp719 5.734e+00 5.000e-01
./src_pw/energy.cpp719 8.734e+00 5.000e-01
./src_pw/energy.cpp719 8.020e+00 5.000e-01
./src_pw/energy.cpp719 5.020e+00 5.000e-01
./src_pw/energy.cpp719 4.020e+00 5.000e-01
./src_pw/energy.cpp719 5.020e+00 5.000e-01
./src_pw/energy.cpp719 8.020e+00 5.000e-01
./src_pw/energy.cpp719 5.020e+00 5.000e-01
./src_pw/energy.cpp719 2.020e+00 5.000e-01
./src_pw/energy.cpp719 1.020e+00 5.000e-01
./src_pw/energy.cpp719 2.020e+00 5.000e-01
./src_pw/energy.cpp719 5.020e+00 5.000e-01
./src_pw/energy.cpp719 4.020e+00 5.000e-01
./src_pw/energy.cpp719 1.020e+00 5.000e-01
./src_pw/energy.cpp719 2.048e-02 5.000e-01
./src_pw/energy.cpp719 1.020e+00 5.000e-01
./src_pw/energy.cpp719 4.020e+00 5.000e-01
./src_pw/energy.cpp719 5.020e+00 5.000e-01
./src_pw/energy.cpp719 2.020e+00 5.000e-01
./src_pw/energy.cpp719 1.020e+00 5.000e-01
./src_pw/energy.cpp719 2.020e+00 5.000e-01
./src_pw/energy.cpp719 5.020e+00 5.000e-01
./src_pw/energy.cpp719 8.020e+00 5.000e-01
./src_pw/energy.cpp719 5.020e+00 5.000e-01
./src_pw/energy.cpp719 4.020e+00 5.000e-01
./src_pw/energy.cpp719 5.020e+00 5.000e-01
./src_pw/energy.cpp719 8.020e+00 5.000e-01
./src_pw/energy.cpp719 9.307e+00 5.000e-01
./src_pw/energy.cpp719 6.307e+00 5.000e-01
./src_pw/energy.cpp719 5.307e+00 5.000e-01
./src_pw/energy.cpp719 6.307e+00 5.000e-01
./src_pw/energy.cpp719 9.307e+00 5.000e-01
./src_pw/energy.cpp719 6.307e+00 5.000e-01
./src_pw/energy.cpp719 3.307e+00 5.000e-01
./src_pw/energy.cpp719 2.307e+00 5.000e-01
./src_pw/energy.cpp719 3.307e+00 5.000e-01
./src_pw/energy.cpp719 6.307e+00 5.000e-01
./src_pw/energy.cpp719 5.307e+00 5.000e-01
./src_pw/energy.cpp719 2.307e+00 5.000e-01
./src_pw/energy.cpp719 1.307e+00 5.000e-01
./src_pw/energy.cpp719 2.307e+00 5.000e-01
./src_pw/energy.cpp719 5.307e+00 5.000e-01
./src_pw/energy.cpp719 6.307e+00 5.000e-01
./src_pw/energy.cpp719 3.307e+00 5.000e-01
./src_pw/energy.cpp719 2.307e+00 5.000e-01
./src_pw/energy.cpp719 3.307e+00 5.000e-01
./src_pw/energy.cpp719 6.307e+00 5.000e-01
./src_pw/energy.cpp719 9.307e+00 5.000e-01
./src_pw/energy.cpp719 6.307e+00 5.000e-01
./src_pw/energy.cpp719 5.307e+00 5.000e-01
./src_pw/energy.cpp719 6.307e+00 5.000e-01
./src_pw/energy.cpp719 9.307e+00 5.000e-01
./src_pw/energy.cpp719 1.259e+01 5.000e-01
./src_pw/energy.cpp719 9.593e+00 5.000e-01
./src_pw/energy.cpp719 8.593e+00 5.000e-01
./src_pw/energy.cpp719 9.593e+00 5.000e-01
./src_pw/energy.cpp719 1.259e+01 5.000e-01
./src_pw/energy.cpp719 9.593e+00 5.000e-01
./src_pw/energy.cpp719 6.593e+00 5.000e-01
./src_pw/energy.cpp719 5.593e+00 5.000e-01
./src_pw/energy.cpp719 6.593e+00 5.000e-01
./src_pw/energy.cpp719 9.593e+00 5.000e-01
./src_pw/energy.cpp719 8.593e+00 5.000e-01
./src_pw/energy.cpp719 5.593e+00 5.000e-01
./src_pw/energy.cpp719 4.593e+00 5.000e-01
./src_pw/energy.cpp719 5.593e+00 5.000e-01
./src_pw/energy.cpp719 8.593e+00 5.000e-01
./src_pw/energy.cpp719 9.593e+00 5.000e-01
./src_pw/energy.cpp719 6.593e+00 5.000e-01
./src_pw/energy.cpp719 5.593e+00 5.000e-01
./src_pw/energy.cpp719 6.593e+00 5.000e-01
./src_pw/energy.cpp719 9.593e+00 5.000e-01
./src_pw/energy.cpp719 1.259e+01 5.000e-01
./src_pw/energy.cpp719 9.593e+00 5.000e-01
./src_pw/energy.cpp719 8.593e+00 5.000e-01
./src_pw/energy.cpp719 9.593e+00 5.000e-01
./src_pw/energy.cpp719 1.259e+01 5.000e-01
./src_pw/energy.cpp719 1.194e+01 5.000e-01
./src_pw/energy.cpp719 8.944e+00 5.000e-01
./src_pw/energy.cpp719 7.944e+00 5.000e-01
./src_pw/energy.cpp719 8.944e+00 5.000e-01
./src_pw/energy.cpp719 1.194e+01 5.000e-01
./src_pw/energy.cpp719 8.833e+00 5.000e-01
./src_pw/energy.cpp719 5.833e+00 5.000e-01
./src_pw/energy.cpp719 4.833e+00 5.000e-01
./src_pw/energy.cpp719 5.833e+00 5.000e-01
./src_pw/energy.cpp719 8.833e+00 5.000e-01
./src_pw/energy.cpp719 7.722e+00 5.000e-01
./src_pw/energy.cpp719 4.722e+00 5.000e-01
./src_pw/energy.cpp719 3.722e+00 5.000e-01
./src_pw/energy.cpp719 4.722e+00 5.000e-01
./src_pw/energy.cpp719 7.722e+00 5.000e-01
./src_pw/energy.cpp719 8.611e+00 5.000e-01
./src_pw/energy.cpp719 5.611e+00 5.000e-01
./src_pw/energy.cpp719 4.611e+00 5.000e-01
./src_pw/energy.cpp719 5.611e+00 5.000e-01
./src_pw/energy.cpp719 8.611e+00 5.000e-01
./src_pw/energy.cpp719 1.150e+01 5.000e-01
./src_pw/energy.cpp719 8.500e+00 5.000e-01
./src_pw/energy.cpp719 7.500e+00 5.000e-01
./src_pw/energy.cpp719 8.500e+00 5.000e-01
./src_pw/energy.cpp719 1.150e+01 5.000e-01
./src_pw/energy.cpp719 9.087e+00 5.000e-01
./src_pw/energy.cpp719 6.087e+00 5.000e-01
./src_pw/energy.cpp719 5.087e+00 5.000e-01
./src_pw/energy.cpp719 6.087e+00 5.000e-01
./src_pw/energy.cpp719 9.087e+00 5.000e-01
./src_pw/energy.cpp719 5.976e+00 5.000e-01
./src_pw/energy.cpp719 2.976e+00 5.000e-01
./src_pw/energy.cpp719 1.976e+00 5.000e-01
./src_pw/energy.cpp719 2.976e+00 5.000e-01
./src_pw/energy.cpp719 5.976e+00 5.000e-01
./src_pw/energy.cpp719 4.865e+00 5.000e-01
./src_pw/energy.cpp719 1.865e+00 5.000e-01
./src_pw/energy.cpp719 8.651e-01 5.000e-01
./src_pw/energy.cpp719 1.865e+00 5.000e-01
./src_pw/energy.cpp719 4.865e+00 5.000e-01
./src_pw/energy.cpp719 5.754e+00 5.000e-01
./src_pw/energy.cpp719 2.754e+00 5.000e-01
./src_pw/energy.cpp719 1.754e+00 5.000e-01
./src_pw/energy.cpp719 2.754e+00 5.000e-01
./src_pw/energy.cpp719 5.754e+00 5.000e-01
./src_pw/energy.cpp719 8.644e+00 5.000e-01
./src_pw/energy.cpp719 5.644e+00 5.000e-01
./src_pw/energy.cpp719 4.644e+00 5.000e-01
./src_pw/energy.cpp719 5.644e+00 5.000e-01
./src_pw/energy.cpp719 8.644e+00 5.000e-01
./src_pw/energy.cpp719 8.230e+00 5.000e-01
./src_pw/energy.cpp719 5.230e+00 5.000e-01
./src_pw/energy.cpp719 4.230e+00 5.000e-01
./src_pw/energy.cpp719 5.230e+00 5.000e-01
./src_pw/energy.cpp719 8.230e+00 5.000e-01
./src_pw/energy.cpp719 5.119e+00 5.000e-01
./src_pw/energy.cpp719 2.119e+00 5.000e-01
./src_pw/energy.cpp719 1.119e+00 5.000e-01
./src_pw/energy.cpp719 2.119e+00 5.000e-01
./src_pw/energy.cpp719 5.119e+00 5.000e-01
./src_pw/energy.cpp719 4.008e+00 5.000e-01
./src_pw/energy.cpp719 1.008e+00 5.000e-01
./src_pw/energy.cpp719 8.187e-03 5.000e-01
./src_pw/energy.cpp719 1.008e+00 5.000e-01
./src_pw/energy.cpp719 4.008e+00 5.000e-01
./src_pw/energy.cpp719 4.897e+00 5.000e-01
./src_pw/energy.cpp719 1.897e+00 5.000e-01
./src_pw/energy.cpp719 8.974e-01 5.000e-01
./src_pw/energy.cpp719 1.897e+00 5.000e-01
./src_pw/energy.cpp719 4.897e+00 5.000e-01
./src_pw/energy.cpp719 7.787e+00 5.000e-01
./src_pw/energy.cpp719 4.787e+00 5.000e-01
./src_pw/energy.cpp719 3.787e+00 5.000e-01
./src_pw/energy.cpp719 4.787e+00 5.000e-01
./src_pw/energy.cpp719 7.787e+00 5.000e-01
./src_pw/energy.cpp719 9.373e+00 5.000e-01
./src_pw/energy.cpp719 6.373e+00 5.000e-01
./src_pw/energy.cpp719 5.373e+00 5.000e-01
./src_pw/energy.cpp719 6.373e+00 5.000e-01
./src_pw/energy.cpp719 9.373e+00 5.000e-01
./src_pw/energy.cpp719 6.262e+00 5.000e-01
./src_pw/energy.cpp719 3.262e+00 5.000e-01
./src_pw/energy.cpp719 2.262e+00 5.000e-01
./src_pw/energy.cpp719 3.262e+00 5.000e-01
./src_pw/energy.cpp719 6.262e+00 5.000e-01
./src_pw/energy.cpp719 5.151e+00 5.000e-01
./src_pw/energy.cpp719 2.151e+00 5.000e-01
./src_pw/energy.cpp719 1.151e+00 5.000e-01
./src_pw/energy.cpp719 2.151e+00 5.000e-01
./src_pw/energy.cpp719 5.151e+00 5.000e-01
./src_pw/energy.cpp719 6.041e+00 5.000e-01
./src_pw/energy.cpp719 3.041e+00 5.000e-01
./src_pw/energy.cpp719 2.041e+00 5.000e-01
./src_pw/energy.cpp719 3.041e+00 5.000e-01
./src_pw/energy.cpp719 6.041e+00 5.000e-01
./src_pw/energy.cpp719 8.930e+00 5.000e-01
./src_pw/energy.cpp719 5.930e+00 5.000e-01
./src_pw/energy.cpp719 4.930e+00 5.000e-01
./src_pw/energy.cpp719 5.930e+00 5.000e-01
./src_pw/energy.cpp719 8.930e+00 5.000e-01
./src_pw/energy.cpp719 1.252e+01 5.000e-01
./src_pw/energy.cpp719 9.516e+00 5.000e-01
./src_pw/energy.cpp719 8.516e+00 5.000e-01
./src_pw/energy.cpp719 9.516e+00 5.000e-01
./src_pw/energy.cpp719 1.252e+01 5.000e-01
./src_pw/energy.cpp719 9.405e+00 5.000e-01
./src_pw/energy.cpp719 6.405e+00 5.000e-01
./src_pw/energy.cpp719 5.405e+00 5.000e-01
./src_pw/energy.cpp719 6.405e+00 5.000e-01
./src_pw/energy.cpp719 9.405e+00 5.000e-01
./src_pw/energy.cpp719 8.294e+00 5.000e-01
./src_pw/energy.cpp719 5.294e+00 5.000e-01
./src_pw/energy.cpp719 4.294e+00 5.000e-01
./src_pw/energy.cpp719 5.294e+00 5.000e-01
./src_pw/energy.cpp719 8.294e+00 5.000e-01
./src_pw/energy.cpp719 9.184e+00 5.000e-01
./src_pw/energy.cpp719 6.184e+00 5.000e-01
./src_pw/energy.cpp719 5.184e+00 5.000e-01
./src_pw/energy.cpp719 6.184e+00 5.000e-01
./src_pw/energy.cpp719 9.184e+00 5.000e-01
./src_pw/energy.cpp719 1.207e+01 5.000e-01
./src_pw/energy.cpp719 9.073e+00 5.000e-01
./src_pw/energy.cpp719 8.073e+00 5.000e-01
./src_pw/energy.cpp719 9.073e+00 5.000e-01
./src_pw/energy.cpp719 1.207e+01 5.000e-01
./src_pw/energy.cpp719 1.150e+01 5.000e-01
./src_pw/energy.cpp719 8.500e+00 5.000e-01
./src_pw/energy.cpp719 7.500e+00 5.000e-01
./src_pw/energy.cpp719 8.500e+00 5.000e-01
./src_pw/energy.cpp719 1.150e+01 5.000e-01
./src_pw/energy.cpp719 8.611e+00 5.000e-01
./src_pw/energy.cpp719 5.611e+00 5.000e-01
./src_pw/energy.cpp719 4.611e+00 5.000e-01
./src_pw/energy.cpp719 5.611e+00 5.000e-01
./src_pw/energy.cpp719 8.611e+00 5.000e-01
./src_pw/energy.cpp719 7.722e+00 5.000e-01
./src_pw/energy.cpp719 4.722e+00 5.000e-01
./src_pw/energy.cpp719 3.722e+00 5.000e-01
./src_pw/energy.cpp719 4.722e+00 5.000e-01
./src_pw/energy.cpp719 7.722e+00 5.000e-01
./src_pw/energy.cpp719 8.833e+00 5.000e-01
./src_pw/energy.cpp719 5.833e+00 5.000e-01
./src_pw/energy.cpp719 4.833e+00 5.000e-01
./src_pw/energy.cpp719 5.833e+00 5.000e-01
./src_pw/energy.cpp719 8.833e+00 5.000e-01
./src_pw/energy.cpp719 1.194e+01 5.000e-01
./src_pw/energy.cpp719 8.944e+00 5.000e-01
./src_pw/energy.cpp719 7.944e+00 5.000e-01
./src_pw/energy.cpp719 8.944e+00 5.000e-01
./src_pw/energy.cpp719 1.194e+01 5.000e-01
./src_pw/energy.cpp719 8.644e+00 5.000e-01
./src_pw/energy.cpp719 5.644e+00 5.000e-01
./src_pw/energy.cpp719 4.644e+00 5.000e-01
./src_pw/energy.cpp719 5.644e+00 5.000e-01
./src_pw/energy.cpp719 8.644e+00 5.000e-01
./src_pw/energy.cpp719 5.754e+00 5.000e-01
./src_pw/energy.cpp719 2.754e+00 5.000e-01
./src_pw/energy.cpp719 1.754e+00 5.000e-01
./src_pw/energy.cpp719 2.754e+00 5.000e-01
./src_pw/energy.cpp719 5.754e+00 5.000e-01
./src_pw/energy.cpp719 4.865e+00 5.000e-01
./src_pw/energy.cpp719 1.865e+00 5.000e-01
./src_pw/energy.cpp719 8.651e-01 5.000e-01
./src_pw/energy.cpp719 1.865e+00 5.000e-01
./src_pw/energy.cpp719 4.865e+00 5.000e-01
./src_pw/energy.cpp719 5.976e+00 5.000e-01
./src_pw/energy.cpp719 2.976e+00 5.000e-01
./src_pw/energy.cpp719 1.976e+00 5.000e-01
./src_pw/energy.cpp719 2.976e+00 5.000e-01
./src_pw/energy.cpp719 5.976e+00 5.000e-01
./src_pw/energy.cpp719 9.087e+00 5.000e-01
./src_pw/energy.cpp719 6.087e+00 5.000e-01
./src_pw/energy.cpp719 5.087e+00 5.000e-01
./src_pw/energy.cpp719 6.087e+00 5.000e-01
./src_pw/energy.cpp719 9.087e+00 5.000e-01
./src_pw/energy.cpp719 7.787e+00 5.000e-01
./src_pw/energy.cpp719 4.787e+00 5.000e-01
./src_pw/energy.cpp719 3.787e+00 5.000e-01
./src_pw/energy.cpp719 4.787e+00 5.000e-01
./src_pw/energy.cpp719 7.787e+00 5.000e-01
./src_pw/energy.cpp719 4.897e+00 5.000e-01
./src_pw/energy.cpp719 1.897e+00 5.000e-01
./src_pw/energy.cpp719 8.974e-01 5.000e-01
./src_pw/energy.cpp719 1.897e+00 5.000e-01
./src_pw/energy.cpp719 4.897e+00 5.000e-01
./src_pw/energy.cpp719 4.008e+00 5.000e-01
./src_pw/energy.cpp719 1.008e+00 5.000e-01
./src_pw/energy.cpp719 8.187e-03 5.000e-01
./src_pw/energy.cpp719 1.008e+00 5.000e-01
./src_pw/energy.cpp719 4.008e+00 5.000e-01
./src_pw/energy.cpp719 5.119e+00 5.000e-01
./src_pw/energy.cpp719 2.119e+00 5.000e-01
./src_pw/energy.cpp719 1.119e+00 5.000e-01
./src_pw/energy.cpp719 2.119e+00 5.000e-01
./src_pw/energy.cpp719 5.119e+00 5.000e-01
./src_pw/energy.cpp719 8.230e+00 5.000e-01
./src_pw/energy.cpp719 5.230e+00 5.000e-01
./src_pw/energy.cpp719 4.230e+00 5.000e-01
./src_pw/energy.cpp719 5.230e+00 5.000e-01
./src_pw/energy.cpp719 8.230e+00 5.000e-01
./src_pw/energy.cpp719 8.930e+00 5.000e-01
./src_pw/energy.cpp719 5.930e+00 5.000e-01
./src_pw/energy.cpp719 4.930e+00 5.000e-01
./src_pw/energy.cpp719 5.930e+00 5.000e-01
./src_pw/energy.cpp719 8.930e+00 5.000e-01
./src_pw/energy.cpp719 6.041e+00 5.000e-01
./src_pw/energy.cpp719 3.041e+00 5.000e-01
./src_pw/energy.cpp719 2.041e+00 5.000e-01
./src_pw/energy.cpp719 3.041e+00 5.000e-01
./src_pw/energy.cpp719 6.041e+00 5.000e-01
./src_pw/energy.cpp719 5.151e+00 5.000e-01
./src_pw/energy.cpp719 2.151e+00 5.000e-01
./src_pw/energy.cpp719 1.151e+00 5.000e-01
./src_pw/energy.cpp719 2.151e+00 5.000e-01
./src_pw/energy.cpp719 5.151e+00 5.000e-01
./src_pw/energy.cpp719 6.262e+00 5.000e-01
./src_pw/energy.cpp719 3.262e+00 5.000e-01
./src_pw/energy.cpp719 2.262e+00 5.000e-01
./src_pw/energy.cpp719 3.262e+00 5.000e-01
./src_pw/energy.cpp719 6.262e+00 5.000e-01
./src_pw/energy.cpp719 9.373e+00 5.000e-01
./src_pw/energy.cpp719 6.373e+00 5.000e-01
./src_pw/energy.cpp719 5.373e+00 5.000e-01
./src_pw/energy.cpp719 6.373e+00 5.000e-01
./src_pw/energy.cpp719 9.373e+00 5.000e-01
./src_pw/energy.cpp719 1.207e+01 5.000e-01
./src_pw/energy.cpp719 9.073e+00 5.000e-01
./src_pw/energy.cpp719 8.073e+00 5.000e-01
./src_pw/energy.cpp719 9.073e+00 5.000e-01
./src_pw/energy.cpp719 1.207e+01 5.000e-01
./src_pw/energy.cpp719 9.184e+00 5.000e-01
./src_pw/energy.cpp719 6.184e+00 5.000e-01
./src_pw/energy.cpp719 5.184e+00 5.000e-01
./src_pw/energy.cpp719 6.184e+00 5.000e-01
./src_pw/energy.cpp719 9.184e+00 5.000e-01
./src_pw/energy.cpp719 8.294e+00 5.000e-01
./src_pw/energy.cpp719 5.294e+00 5.000e-01
./src_pw/energy.cpp719 4.294e+00 5.000e-01
./src_pw/energy.cpp719 5.294e+00 5.000e-01
./src_pw/energy.cpp719 8.294e+00 5.000e-01
./src_pw/energy.cpp719 9.405e+00 5.000e-01
./src_pw/energy.cpp719 6.405e+00 5.000e-01
./src_pw/energy.cpp719 5.405e+00 5.000e-01
./src_pw/energy.cpp719 6.405e+00 5.000e-01
./src_pw/energy.cpp719 9.405e+00 5.000e-01
./src_pw/energy.cpp719 1.252e+01 5.000e-01
./src_pw/energy.cpp719 9.516e+00 5.000e-01
./src_pw/energy.cpp719 8.516e+00 5.000e-01
./src_pw/energy.cpp719 9.516e+00 5.000e-01
./src_pw/energy.cpp719 1.252e+01 5.000e-01
./src_pw/energy.cpp719 1.207e+01 5.000e-01
./src_pw/energy.cpp719 9.073e+00 5.000e-01
./src_pw/energy.cpp719 8.073e+00 5.000e-01
./src_pw/energy.cpp719 9.073e+00 5.000e-01
./src_pw/energy.cpp719 1.207e+01 5.000e-01
./src_pw/energy.cpp719 9.184e+00 5.000e-01
./src_pw/energy.cpp719 6.184e+00 5.000e-01
./src_pw/energy.cpp719 5.184e+00 5.000e-01
./src_pw/energy.cpp719 6.184e+00 5.000e-01
./src_pw/energy.cpp719 9.184e+00 5.000e-01
./src_pw/energy.cpp719 8.294e+00 5.000e-01
./src_pw/energy.cpp719 5.294e+00 5.000e-01
./src_pw/energy.cpp719 4.294e+00 5.000e-01
./src_pw/energy.cpp719 5.294e+00 5.000e-01
./src_pw/energy.cpp719 8.294e+00 5.000e-01
./src_pw/energy.cpp719 9.405e+00 5.000e-01
./src_pw/energy.cpp719 6.405e+00 5.000e-01
./src_pw/energy.cpp719 5.405e+00 5.000e-01
./src_pw/energy.cpp719 6.405e+00 5.000e-01
./src_pw/energy.cpp719 9.405e+00 5.000e-01
./src_pw/energy.cpp719 1.252e+01 5.000e-01
./src_pw/energy.cpp719 9.516e+00 5.000e-01
./src_pw/energy.cpp719 8.516e+00 5.000e-01
./src_pw/energy.cpp719 9.516e+00 5.000e-01
./src_pw/energy.cpp719 1.252e+01 5.000e-01
./src_pw/energy.cpp719 8.930e+00 5.000e-01
./src_pw/energy.cpp719 5.930e+00 5.000e-01
./src_pw/energy.cpp719 4.930e+00 5.000e-01
./src_pw/energy.cpp719 5.930e+00 5.000e-01
./src_pw/energy.cpp719 8.930e+00 5.000e-01
./src_pw/energy.cpp719 6.041e+00 5.000e-01
./src_pw/energy.cpp719 3.041e+00 5.000e-01
./src_pw/energy.cpp719 2.041e+00 5.000e-01
./src_pw/energy.cpp719 3.041e+00 5.000e-01
./src_pw/energy.cpp719 6.041e+00 5.000e-01
./src_pw/energy.cpp719 5.151e+00 5.000e-01
./src_pw/energy.cpp719 2.151e+00 5.000e-01
./src_pw/energy.cpp719 1.151e+00 5.000e-01
./src_pw/energy.cpp719 2.151e+00 5.000e-01
./src_pw/energy.cpp719 5.151e+00 5.000e-01
./src_pw/energy.cpp719 6.262e+00 5.000e-01
./src_pw/energy.cpp719 3.262e+00 5.000e-01
./src_pw/energy.cpp719 2.262e+00 5.000e-01
./src_pw/energy.cpp719 3.262e+00 5.000e-01
./src_pw/energy.cpp719 6.262e+00 5.000e-01
./src_pw/energy.cpp719 9.373e+00 5.000e-01
./src_pw/energy.cpp719 6.373e+00 5.000e-01
./src_pw/energy.cpp719 5.373e+00 5.000e-01
./src_pw/energy.cpp719 6.373e+00 5.000e-01
./src_pw/energy.cpp719 9.373e+00 5.000e-01
./src_pw/energy.cpp719 7.787e+00 5.000e-01
./src_pw/energy.cpp719 4.787e+00 5.000e-01
./src_pw/energy.cpp719 3.787e+00 5.000e-01
./src_pw/energy.cpp719 4.787e+00 5.000e-01
./src_pw/energy.cpp719 7.787e+00 5.000e-01
./src_pw/energy.cpp719 4.897e+00 5.000e-01
./src_pw/energy.cpp719 1.897e+00 5.000e-01
./src_pw/energy.cpp719 8.974e-01 5.000e-01
./src_pw/energy.cpp719 1.897e+00 5.000e-01
./src_pw/energy.cpp719 4.897e+00 5.000e-01
./src_pw/energy.cpp719 4.008e+00 5.000e-01
./src_pw/energy.cpp719 1.008e+00 5.000e-01
./src_pw/energy.cpp719 8.187e-03 5.000e-01
./src_pw/energy.cpp719 1.008e+00 5.000e-01
./src_pw/energy.cpp719 4.008e+00 5.000e-01
./src_pw/energy.cpp719 5.119e+00 5.000e-01
./src_pw/energy.cpp719 2.119e+00 5.000e-01
./src_pw/energy.cpp719 1.119e+00 5.000e-01
./src_pw/energy.cpp719 2.119e+00 5.000e-01
./src_pw/energy.cpp719 5.119e+00 5.000e-01
./src_pw/energy.cpp719 8.230e+00 5.000e-01
./src_pw/energy.cpp719 5.230e+00 5.000e-01
./src_pw/energy.cpp719 4.230e+00 5.000e-01
./src_pw/energy.cpp719 5.230e+00 5.000e-01
./src_pw/energy.cpp719 8.230e+00 5.000e-01
./src_pw/energy.cpp719 8.644e+00 5.000e-01
./src_pw/energy.cpp719 5.644e+00 5.000e-01
./src_pw/energy.cpp719 4.644e+00 5.000e-01
./src_pw/energy.cpp719 5.644e+00 5.000e-01
./src_pw/energy.cpp719 8.644e+00 5.000e-01
./src_pw/energy.cpp719 5.754e+00 5.000e-01
./src_pw/energy.cpp719 2.754e+00 5.000e-01
./src_pw/energy.cpp719 1.754e+00 5.000e-01
./src_pw/energy.cpp719 2.754e+00 5.000e-01
./src_pw/energy.cpp719 5.754e+00 5.000e-01
./src_pw/energy.cpp719 4.865e+00 5.000e-01
./src_pw/energy.cpp719 1.865e+00 5.000e-01
./src_pw/energy.cpp719 8.651e-01 5.000e-01
./src_pw/energy.cpp719 1.865e+00 5.000e-01
./src_pw/energy.cpp719 4.865e+00 5.000e-01
./src_pw/energy.cpp719 5.976e+00 5.000e-01
./src_pw/energy.cpp719 2.976e+00 5.000e-01
./src_pw/energy.cpp719 1.976e+00 5.000e-01
./src_pw/energy.cpp719 2.976e+00 5.000e-01
./src_pw/energy.cpp719 5.976e+00 5.000e-01
./src_pw/energy.cpp719 9.087e+00 5.000e-01
./src_pw/energy.cpp719 6.087e+00 5.000e-01
./src_pw/energy.cpp719 5.087e+00 5.000e-01
./src_pw/energy.cpp719 6.087e+00 5.000e-01
./src_pw/energy.cpp719 9.087e+00 5.000e-01
./src_pw/energy.cpp719 1.150e+01 5.000e-01
./src_pw/energy.cpp719 8.500e+00 5.000e-01
./src_pw/energy.cpp719 7.500e+00 5.000e-01
./src_pw/energy.cpp719 8.500e+00 5.000e-01
./src_pw/energy.cpp719 1.150e+01 5.000e-01
./src_pw/energy.cpp719 8.611e+00 5.000e-01
./src_pw/energy.cpp719 5.611e+00 5.000e-01
./src_pw/energy.cpp719 4.611e+00 5.000e-01
./src_pw/energy.cpp719 5.611e+00 5.000e-01
./src_pw/energy.cpp719 8.611e+00 5.000e-01
./src_pw/energy.cpp719 7.722e+00 5.000e-01
./src_pw/energy.cpp719 4.722e+00 5.000e-01
./src_pw/energy.cpp719 3.722e+00 5.000e-01
./src_pw/energy.cpp719 4.722e+00 5.000e-01
./src_pw/energy.cpp719 7.722e+00 5.000e-01
./src_pw/energy.cpp719 8.833e+00 5.000e-01
./src_pw/energy.cpp719 5.833e+00 5.000e-01
./src_pw/energy.cpp719 4.833e+00 5.000e-01
./src_pw/energy.cpp719 5.833e+00 5.000e-01
./src_pw/energy.cpp719 8.833e+00 5.000e-01
./src_pw/energy.cpp719 1.194e+01 5.000e-01
./src_pw/energy.cpp719 8.944e+00 5.000e-01
./src_pw/energy.cpp719 7.944e+00 5.000e-01
./src_pw/energy.cpp719 8.944e+00 5.000e-01
./src_pw/energy.cpp719 1.194e+01 5.000e-01
./src_pw/stress.cpp1348 -4.731e-02
./src_pw/stress.cpp1351 -8.438e-04
./src_pw/stress.cpp1351 4.189e-19
./src_pw/stress.cpp1351 2.569e-03
./src_pw/stress.cpp1351 -2.309e-20
./src_pw/stress.cpp1351 -5.213e-20
./src_pw/stress.cpp1351 6.078e-03
./src_pw/stress.cpp1370 1
./src_pw/stress.cpp1373 1.000e+00 1.000e+01 4.000e-01
./src_pw/stress.cpp1381 0.000e+00 0.000e+00 0.000e+00 
./src_pw/energy.cpp719 1.200e+01 4.000e-01
./src_pw/energy.cpp719 9.000e+00 4.000e-01
./src_pw/energy.cpp719 8.000e+00 4.000e-01
./src_pw/energy.cpp719 9.000e+00 4.000e-01
./src_pw/energy.cpp719 1.200e+01 4.000e-01
./src_pw/energy.cpp719 9.000e+00 4.000e-01
./src_pw/energy.cpp719 6.000e+00 4.000e-01
./src_pw/energy.cpp719 5.000e+00 4.000e-01
./src_pw/energy.cpp719 6.000e+00 4.000e-01
./src_pw/energy.cpp719 9.000e+00 4.000e-01
./src_pw/energy.cpp719 8.000e+00 4.000e-01
./src_pw/energy.cpp719 5.000e+00 4.000e-01
./src_pw/energy.cpp719 4.000e+00 4.000e-01
./src_pw/energy.cpp719 5.000e+00 4.000e-01
./src_pw/energy.cpp719 8.000e+00 4.000e-01
./src_pw/energy.cpp719 9.000e+00 4.000e-01
./src_pw/energy.cpp719 6.000e+00 4.000e-01
./src_pw/energy.cpp719 5.000e+00 4.000e-01
./src_pw/energy.cpp719 6.000e+00 4.000e-01
./src_pw/energy.cpp719 9.000e+00 4.000e-01
./src_pw/energy.cpp719 1.200e+01 4.000e-01
./src_pw/energy.cpp719 9.000e+00 4.000e-01
./src_pw/energy.cpp719 8.000e+00 4.000e-01
./src_pw/energy.cpp719 9.000e+00 4.000e-01
./src_pw/energy.cpp719 1.200e+01 4.000e-01
./src_pw/energy.cpp719 9.000e+00 4.000e-01
./src_pw/energy.cpp719 6.000e+00 4.000e-01
./src_pw/energy.cpp719 5.000e+00 4.000e-01
./src_pw/energy.cpp719 6.000e+00 4.000e-01
./src_pw/energy.cpp719 9.000e+00 4.000e-01
./src_pw/energy.cpp719 6.000e+00 4.000e-01
./src_pw/energy.cpp719 3.000e+00 4.000e-01
./src_pw/energy.cpp719 2.000e+00 4.000e-01
./src_pw/energy.cpp719 3.000e+00 4.000e-01
./src_pw/energy.cpp719 6.000e+00 4.000e-01
./src_pw/energy.cpp719 5.000e+00 4.000e-01
./src_pw/energy.cpp719 2.000e+00 4.000e-01
./src_pw/energy.cpp719 1.000e+00 4.000e-01
./src_pw/energy.cpp719 2.000e+00 4.000e-01
./src_pw/energy.cpp719 5.000e+00 4.000e-01
./src_pw/energy.cpp719 6.000e+00 4.000e-01
./src_pw/energy.cpp719 3.000e+00 4.000e-01
./src_pw/energy.cpp719 2.000e+00 4.000e-01
./src_pw/energy.cpp719 3.000e+00 4.000e-01
./src_pw/energy.cpp719 6.000e+00 4.000e-01
./src_pw/energy.cpp719 9.000e+00 4.000e-01
./src_pw/energy.cpp719 6.000e+00 4.000e-01
./src_pw/energy.cpp719 5.000e+00 4.000e-01
./src_pw/energy.cpp719 6.000e+00 4.000e-01
./src_pw/energy.cpp719 9.000e+00 4.000e-01
./src_pw/energy.cpp719 8.000e+00 4.000e-01
./src_pw/energy.cpp719 5.000e+00 4.000e-01
./src_pw/energy.cpp719 4.000e+00 4.000e-01
./src_pw/energy.cpp719 5.000e+00 4.000e-01
./src_pw/energy.cpp719 8.000e+00 4.000e-01
./src_pw/energy.cpp719 5.000e+00 4.000e-01
./src_pw/energy.cpp719 2.000e+00 4.000e-01
./src_pw/energy.cpp719 1.000e+00 4.000e-01
./src_pw/energy.cpp719 2.000e+00 4.000e-01
./src_pw/energy.cpp719 5.000e+00 4.000e-01
./src_pw/energy.cpp719 4.000e+00 4.000e-01
./src_pw/energy.cpp719 1.000e+00 4.000e-01
./src_pw/energy.cpp719 0.000e+00 4.000e-01
./src_pw/energy.cpp719 1.000e+00 4.000e-01
./src_pw/energy.cpp719 4.000e+00 4.000e-01
./src_pw/energy.cpp719 5.000e+00 4.000e-01
./src_pw/energy.cpp719 2.000e+00 4.000e-01
./src_pw/energy.cpp719 1.000e+00 4.000e-01
./src_pw/energy.cpp719 2.000e+00 4.000e-01
./src_pw/energy.cpp719 5.000e+00 4.000e-01
./src_pw/energy.cpp719 8.000e+00 4.000e-01
./src_pw/energy.cpp719 5.000e+00 4.000e-01
./src_pw/energy.cpp719 4.000e+00 4.000e-01
./src_pw/energy.cpp719 5.000e+00 4.000e-01
./src_pw/energy.cpp719 8.000e+00 4.000e-01
./src_pw/energy.cpp719 9.000e+00 4.000e-01
./src_pw/energy.cpp719 6.000e+00 4.000e-01
./src_pw/energy.cpp719 5.000e+00 4.000e-01
./src_pw/energy.cpp719 6.000e+00 4.000e-01
./src_pw/energy.cpp719 9.000e+00 4.000e-01
./src_pw/energy.cpp719 6.000e+00 4.000e-01
./src_pw/energy.cpp719 3.000e+00 4.000e-01
./src_pw/energy.cpp719 2.000e+00 4.000e-01
./src_pw/energy.cpp719 3.000e+00 4.000e-01
./src_pw/energy.cpp719 6.000e+00 4.000e-01
./src_pw/energy.cpp719 5.000e+00 4.000e-01
./src_pw/energy.cpp719 2.000e+00 4.000e-01
./src_pw/energy.cpp719 1.000e+00 4.000e-01
./src_pw/energy.cpp719 2.000e+00 4.000e-01
./src_pw/energy.cpp719 5.000e+00 4.000e-01
./src_pw/energy.cpp719 6.000e+00 4.000e-01
./src_pw/energy.cpp719 3.000e+00 4.000e-01
./src_pw/energy.cpp719 2.000e+00 4.000e-01
./src_pw/energy.cpp719 3.000e+00 4.000e-01
./src_pw/energy.cpp719 6.000e+00 4.000e-01
./src_pw/energy.cpp719 9.000e+00 4.000e-01
./src_pw/energy.cpp719 6.000e+00 4.000e-01
./src_pw/energy.cpp719 5.000e+00 4.000e-01
./src_pw/energy.cpp719 6.000e+00 4.000e-01
./src_pw/energy.cpp719 9.000e+00 4.000e-01
./src_pw/energy.cpp719 1.200e+01 4.000e-01
./src_pw/energy.cpp719 9.000e+00 4.000e-01
./src_pw/energy.cpp719 8.000e+00 4.000e-01
./src_pw/energy.cpp719 9.000e+00 4.000e-01
./src_pw/energy.cpp719 1.200e+01 4.000e-01
./src_pw/energy.cpp719 9.000e+00 4.000e-01
./src_pw/energy.cpp719 6.000e+00 4.000e-01
./src_pw/energy.cpp719 5.000e+00 4.000e-01
./src_pw/energy.cpp719 6.000e+00 4.000e-01
./src_pw/energy.cpp719 9.000e+00 4.000e-01
./src_pw/energy.cpp719 8.000e+00 4.000e-01
./src_pw/energy.cpp719 5.000e+00 4.000e-01
./src_pw/energy.cpp719 4.000e+00 4.000e-01
./src_pw/energy.cpp719 5.000e+00 4.000e-01
./src_pw/energy.cpp719 8.000e+00 4.000e-01
./src_pw/energy.cpp719 9.000e+00 4.000e-01
./src_pw/energy.cpp719 6.000e+00 4.000e-01
./src_pw/energy.cpp719 5.000e+00 4.000e-01
./src_pw/energy.cpp719 6.000e+00 4.000e-01
./src_pw/energy.cpp719 9.000e+00 4.000e-01
./src_pw/energy.cpp719 1.200e+01 4.000e-01
./src_pw/energy.cpp719 9.000e+00 4.000e-01
./src_pw/energy.cpp719 8.000e+00 4.000e-01
./src_pw/energy.cpp719 9.000e+00 4.000e-01
./src_pw/energy.cpp719 1.200e+01 4.000e-01
./src_pw/stress.cpp1384 0 1 1 4.000e-01
./src_pw/stress.cpp1381 1.431e-01 0.000e+00 0.000e+00 
./src_pw/energy.cpp719 1.259e+01 4.000e-01
./src_pw/energy.cpp719 9.593e+00 4.000e-01
./src_pw/energy.cpp719 8.593e+00 4.000e-01
./src_pw/energy.cpp719 9.593e+00 4.000e-01
./src_pw/energy.cpp719 1.259e+01 4.000e-01
./src_pw/energy.cpp719 9.593e+00 4.000e-01
./src_pw/energy.cpp719 6.593e+00 4.000e-01
./src_pw/energy.cpp719 5.593e+00 4.000e-01
./src_pw/energy.cpp719 6.593e+00 4.000e-01
./src_pw/energy.cpp719 9.593e+00 4.000e-01
./src_pw/energy.cpp719 8.593e+00 4.000e-01
./src_pw/energy.cpp719 5.593e+00 4.000e-01
./src_pw/energy.cpp719 4.593e+00 4.000e-01
./src_pw/energy.cpp719 5.593e+00 4.000e-01
./src_pw/energy.cpp719 8.593e+00 4.000e-01
./src_pw/energy.cpp719 9.593e+00 4.000e-01
./src_pw/energy.cpp719 6.593e+00 4.000e-01
./src_pw/energy.cpp719 5.593e+00 4.000e-01
./src_pw/energy.cpp719 6.593e+00 4.000e-01
./src_pw/energy.cpp719 9.593e+00 4.000e-01
./src_pw/energy.cpp719 1.259e+01 4.000e-01
./src_pw/energy.cpp719 9.593e+00 4.000e-01
./src_pw/energy.cpp719 8.593e+00 4.000e-01
./src_pw/energy.cpp719 9.593e+00 4.000e-01
./src_pw/energy.cpp719 1.259e+01 4.000e-01
./src_pw/energy.cpp719 9.307e+00 4.000e-01
./src_pw/energy.cpp719 6.307e+00 4.000e-01
./src_pw/energy.cpp719 5.307e+00 4.000e-01
./src_pw/energy.cpp719 6.307e+00 4.000e-01
./src_pw/energy.cpp719 9.307e+00 4.000e-01
./src_pw/energy.cpp719 6.307e+00 4.000e-01
./src_pw/energy.cpp719 3.307e+00 4.000e-01
./src_pw/energy.cpp719 2.307e+00 4.000e-01
./src_pw/energy.cpp719 3.307e+00 4.000e-01
./src_pw/energy.cpp719 6.307e+00 4.000e-01
./src_pw/energy.cpp719 5.307e+00 4.000e-01
./src_pw/energy.cpp719 2.307e+00 4.000e-01
./src_pw/energy.cpp719 1.307e+00 4.000e-01
./src_pw/energy.cpp719 2.307e+00 4.000e-01
./src_pw/energy.cpp719 5.307e+00 4.000e-01
./src_pw/energy.cpp719 6.307e+00 4.000e-01
./src_pw/energy.cpp719 3.307e+00 4.000e-01
./src_pw/energy.cpp719 2.307e+00 4.000e-01
./src_pw/energy.cpp719 3.307e+00 4.000e-01
./src_pw/energy.cpp719 6.307e+00 4.000e-01
./src_pw/energy.cpp719 9.307e+00 4.000e-01
./src_pw/energy.cpp719 6.307e+00 4.000e-01
./src_pw/energy.cpp719 5.307e+00 4.000e-01
./src_pw/energy.cpp719 6.307e+00 4.000e-01
./src_pw/energy.cpp719 9.307e+00 4.000e-01
./src_pw/energy.cpp719 8.020e+00 4.000e-01
./src_pw/energy.cpp719 5.020e+00 4.000e-01
./src_pw/energy.cpp719 4.020e+00 4.000e-01
./src_pw/energy.cpp719 5.020e+00 4.000e-01
./src_pw/energy.cpp719 8.020e+00 4.000e-01
./src_pw/energy.cpp719 5.020e+00 4.000e-01
./src_pw/energy.cpp719 2.020e+00 4.000e-01
./src_pw/energy.cpp719 1.020e+00 4.000e-01
./src_pw/energy.cpp719 2.020e+00 4.000e-01
./src_pw/energy.cpp719 5.020e+00 4.000e-01
./src_pw/energy.cpp719 4.020e+00 4.000e-01
./src_pw/energy.cpp719 1.020e+00 4.000e-01
./src_pw/energy.cpp719 2.048e-02 4.000e-01
./src_pw/energy.cpp719 1.020e+00 4.000e-01
./src_pw/energy.cpp719 4.020e+00 4.000e-01
./src_pw/energy.cpp719 5.020e+00 4.000e-01
./src_pw/energy.cpp719 2.020e+00 4.000e-01
./src_pw/energy.cpp719 1.020e+00 4.000e-01
./src_pw/energy.cpp719 2.020e+00 4.000e-01
[...]
./src_pw/energy.cpp719 6.184e+00 4.000e-01
./src_pw/energy.cpp719 9.184e+00 4.000e-01
./src_pw/energy.cpp719 1.207e+01 4.000e-01
./src_pw/energy.cpp719 9.073e+00 4.000e-01
./src_pw/energy.cpp719 8.073e+00 4.000e-01
./src_pw/energy.cpp719 9.073e+00 4.000e-01
./src_pw/energy.cpp719 1.207e+01 4.000e-01
./src_pw/stress.cpp1384 1 1 6 4.000e-01
./src_pw/stress.cpp1388 -5.272e-01
./src_pw/stress.cpp1381 -7.155e-02 -5.539e-02 0.000e+00 
./src_pw/energy.cpp719 1.150e+01 4.000e-01
./src_pw/energy.cpp719 8.500e+00 4.000e-01
./src_pw/energy.cpp719 7.500e+00 4.000e-01
./src_pw/energy.cpp719 8.500e+00 4.000e-01
./src_pw/energy.cpp719 1.150e+01 4.000e-01
./src_pw/energy.cpp719 8.611e+00 4.000e-01
./src_pw/energy.cpp719 5.611e+00 4.000e-01
./src_pw/energy.cpp719 4.611e+00 4.000e-01
./src_pw/energy.cpp719 5.611e+00 4.000e-01
./src_pw/energy.cpp719 8.611e+00 4.000e-01
./src_pw/energy.cpp719 7.722e+00 4.000e-01
./src_pw/energy.cpp719 4.722e+00 4.000e-01
./src_pw/energy.cpp719 3.722e+00 4.000e-01
./src_pw/energy.cpp719 4.722e+00 4.000e-01
./src_pw/energy.cpp719 7.722e+00 4.000e-01
./src_pw/energy.cpp719 8.833e+00 4.000e-01
./src_pw/energy.cpp719 5.833e+00 4.000e-01
./src_pw/energy.cpp719 4.833e+00 4.000e-01
./src_pw/energy.cpp719 5.833e+00 4.000e-01
./src_pw/energy.cpp719 8.833e+00 4.000e-01
./src_pw/energy.cpp719 1.194e+01 4.000e-01
./src_pw/energy.cpp719 8.944e+00 4.000e-01
./src_pw/energy.cpp719 7.944e+00 4.000e-01
./src_pw/energy.cpp719 8.944e+00 4.000e-01
./src_pw/energy.cpp719 1.194e+01 4.000e-01
./src_pw/energy.cpp719 8.644e+00 4.000e-01
./src_pw/energy.cpp719 5.644e+00 4.000e-01
./src_pw/energy.cpp719 4.644e+00 4.000e-01
./src_pw/energy.cpp719 5.644e+00 4.000e-01
./src_pw/energy.cpp719 8.644e+00 4.000e-01
./src_pw/energy.cpp719 5.754e+00 4.000e-01
./src_pw/energy.cpp719 2.754e+00 4.000e-01
./src_pw/energy.cpp719 1.754e+00 4.000e-01
./src_pw/energy.cpp719 2.754e+00 4.000e-01
./src_pw/energy.cpp719 5.754e+00 4.000e-01
./src_pw/energy.cpp719 4.865e+00 4.000e-01
./src_pw/energy.cpp719 1.865e+00 4.000e-01
./src_pw/energy.cpp719 8.651e-01 4.000e-01
./src_pw/energy.cpp719 1.865e+00 4.000e-01
./src_pw/energy.cpp719 4.865e+00 4.000e-01
./src_pw/energy.cpp719 5.976e+00 4.000e-01
./src_pw/energy.cpp719 2.976e+00 4.000e-01
./src_pw/energy.cpp719 1.976e+00 4.000e-01
./src_pw/energy.cpp719 2.976e+00 4.000e-01
./src_pw/energy.cpp719 5.976e+00 4.000e-01
./src_pw/energy.cpp719 9.087e+00 4.000e-01
./src_pw/energy.cpp719 6.087e+00 4.000e-01
./src_pw/energy.cpp719 5.087e+00 4.000e-01
./src_pw/energy.cpp719 6.087e+00 4.000e-01
./src_pw/energy.cpp719 9.087e+00 4.000e-01
./src_pw/energy.cpp719 7.787e+00 4.000e-01
./src_pw/energy.cpp719 4.787e+00 4.000e-01
./src_pw/energy.cpp719 3.787e+00 4.000e-01
./src_pw/energy.cpp719 4.787e+00 4.000e-01
./src_pw/energy.cpp719 7.787e+00 4.000e-01
./src_pw/energy.cpp719 4.897e+00 4.000e-01
./src_pw/energy.cpp719 1.897e+00 4.000e-01
./src_pw/energy.cpp719 8.974e-01 4.000e-01
./src_pw/energy.cpp719 1.897e+00 4.000e-01
./src_pw/energy.cpp719 4.897e+00 4.000e-01
./src_pw/energy.cpp719 4.008e+00 4.000e-01
./src_pw/energy.cpp719 1.008e+00 4.000e-01
./src_pw/energy.cpp719 8.187e-03 4.000e-01
./src_pw/energy.cpp719 1.008e+00 4.000e-01
./src_pw/energy.cpp719 4.008e+00 4.000e-01
./src_pw/energy.cpp719 5.119e+00 4.000e-01
./src_pw/energy.cpp719 2.119e+00 4.000e-01
./src_pw/energy.cpp719 1.119e+00 4.000e-01
./src_pw/energy.cpp719 2.119e+00 4.000e-01
./src_pw/energy.cpp719 5.119e+00 4.000e-01
./src_pw/energy.cpp719 8.230e+00 4.000e-01
./src_pw/energy.cpp719 5.230e+00 4.000e-01
./src_pw/energy.cpp719 4.230e+00 4.000e-01
./src_pw/energy.cpp719 5.230e+00 4.000e-01
./src_pw/energy.cpp719 8.230e+00 4.000e-01
./src_pw/energy.cpp719 8.930e+00 4.000e-01
./src_pw/energy.cpp719 5.930e+00 4.000e-01
./src_pw/energy.cpp719 4.930e+00 4.000e-01
./src_pw/energy.cpp719 5.930e+00 4.000e-01
./src_pw/energy.cpp719 8.930e+00 4.000e-01
./src_pw/energy.cpp719 6.041e+00 4.000e-01
./src_pw/energy.cpp719 3.041e+00 4.000e-01
./src_pw/energy.cpp719 2.041e+00 4.000e-01
./src_pw/energy.cpp719 3.041e+00 4.000e-01
./src_pw/energy.cpp719 6.041e+00 4.000e-01
./src_pw/energy.cpp719 5.151e+00 4.000e-01
./src_pw/energy.cpp719 2.151e+00 4.000e-01
./src_pw/energy.cpp719 1.151e+00 4.000e-01
./src_pw/energy.cpp719 2.151e+00 4.000e-01
./src_pw/energy.cpp719 5.151e+00 4.000e-01
./src_pw/energy.cpp719 6.262e+00 4.000e-01
./src_pw/energy.cpp719 3.262e+00 4.000e-01
./src_pw/energy.cpp719 2.262e+00 4.000e-01
./src_pw/energy.cpp719 3.262e+00 4.000e-01
./src_pw/energy.cpp719 6.262e+00 4.000e-01
./src_pw/energy.cpp719 9.373e+00 4.000e-01
./src_pw/energy.cpp719 6.373e+00 4.000e-01
./src_pw/energy.cpp719 5.373e+00 4.000e-01
./src_pw/energy.cpp719 6.373e+00 4.000e-01
./src_pw/energy.cpp719 9.373e+00 4.000e-01
./src_pw/energy.cpp719 1.207e+01 4.000e-01
./src_pw/energy.cpp719 9.073e+00 4.000e-01
./src_pw/energy.cpp719 8.073e+00 4.000e-01
./src_pw/energy.cpp719 9.073e+00 4.000e-01
./src_pw/energy.cpp719 1.207e+01 4.000e-01
./src_pw/energy.cpp719 9.184e+00 4.000e-01
./src_pw/energy.cpp719 6.184e+00 4.000e-01
./src_pw/energy.cpp719 5.184e+00 4.000e-01
./src_pw/energy.cpp719 6.184e+00 4.000e-01
./src_pw/energy.cpp719 9.184e+00 4.000e-01
./src_pw/energy.cpp719 8.294e+00 4.000e-01
./src_pw/energy.cpp719 5.294e+00 4.000e-01
./src_pw/energy.cpp719 4.294e+00 4.000e-01
./src_pw/energy.cpp719 5.294e+00 4.000e-01
./src_pw/energy.cpp719 8.294e+00 4.000e-01
./src_pw/energy.cpp719 9.405e+00 4.000e-01
./src_pw/energy.cpp719 6.405e+00 4.000e-01
./src_pw/energy.cpp719 5.405e+00 4.000e-01
./src_pw/energy.cpp719 6.405e+00 4.000e-01
./src_pw/energy.cpp719 9.405e+00 4.000e-01
./src_pw/energy.cpp719 1.252e+01 4.000e-01
./src_pw/energy.cpp719 9.516e+00 4.000e-01
./src_pw/energy.cpp719 8.516e+00 4.000e-01
./src_pw/energy.cpp719 9.516e+00 4.000e-01
./src_pw/energy.cpp719 1.252e+01 4.000e-01
./src_pw/stress.cpp1384 1 6 1 4.000e-01
./src_pw/stress.cpp1388 -5.272e-01
./src_pw/stress.cpp1381 7.155e-02 -5.539e-02 0.000e+00 
./src_pw/energy.cpp719 1.207e+01 4.000e-01
./src_pw/energy.cpp719 9.073e+00 4.000e-01
./src_pw/energy.cpp719 8.073e+00 4.000e-01
./src_pw/energy.cpp719 9.073e+00 4.000e-01
./src_pw/energy.cpp719 1.207e+01 4.000e-01
./src_pw/energy.cpp719 9.184e+00 4.000e-01
./src_pw/energy.cpp719 6.184e+00 4.000e-01
./src_pw/energy.cpp719 5.184e+00 4.000e-01
./src_pw/energy.cpp719 6.184e+00 4.000e-01
./src_pw/energy.cpp719 9.184e+00 4.000e-01
./src_pw/energy.cpp719 8.294e+00 4.000e-01
./src_pw/energy.cpp719 5.294e+00 4.000e-01
./src_pw/energy.cpp719 4.294e+00 4.000e-01
./src_pw/energy.cpp719 5.294e+00 4.000e-01
./src_pw/energy.cpp719 8.294e+00 4.000e-01
./src_pw/energy.cpp719 9.405e+00 4.000e-01
./src_pw/energy.cpp719 6.405e+00 4.000e-01
./src_pw/energy.cpp719 5.405e+00 4.000e-01
./src_pw/energy.cpp719 6.405e+00 4.000e-01
./src_pw/energy.cpp719 9.405e+00 4.000e-01
./src_pw/energy.cpp719 1.252e+01 4.000e-01
./src_pw/energy.cpp719 9.516e+00 4.000e-01
./src_pw/energy.cpp719 8.516e+00 4.000e-01
./src_pw/energy.cpp719 9.516e+00 4.000e-01
./src_pw/energy.cpp719 1.252e+01 4.000e-01
./src_pw/energy.cpp719 8.930e+00 4.000e-01
./src_pw/energy.cpp719 5.930e+00 4.000e-01
./src_pw/energy.cpp719 4.930e+00 4.000e-01
./src_pw/energy.cpp719 5.930e+00 4.000e-01
./src_pw/energy.cpp719 8.930e+00 4.000e-01
./src_pw/energy.cpp719 6.041e+00 4.000e-01
./src_pw/energy.cpp719 3.041e+00 4.000e-01
./src_pw/energy.cpp719 2.041e+00 4.000e-01
./src_pw/energy.cpp719 3.041e+00 4.000e-01
./src_pw/energy.cpp719 6.041e+00 4.000e-01
./src_pw/energy.cpp719 5.151e+00 4.000e-01
./src_pw/energy.cpp719 2.151e+00 4.000e-01
./src_pw/energy.cpp719 1.151e+00 4.000e-01
./src_pw/energy.cpp719 2.151e+00 4.000e-01
./src_pw/energy.cpp719 5.151e+00 4.000e-01
./src_pw/energy.cpp719 6.262e+00 4.000e-01
./src_pw/energy.cpp719 3.262e+00 4.000e-01
./src_pw/energy.cpp719 2.262e+00 4.000e-01
./src_pw/energy.cpp719 3.262e+00 4.000e-01
./src_pw/energy.cpp719 6.262e+00 4.000e-01
./src_pw/energy.cpp719 9.373e+00 4.000e-01
./src_pw/energy.cpp719 6.373e+00 4.000e-01
./src_pw/energy.cpp719 5.373e+00 4.000e-01
./src_pw/energy.cpp719 6.373e+00 4.000e-01
./src_pw/energy.cpp719 9.373e+00 4.000e-01
./src_pw/energy.cpp719 7.787e+00 4.000e-01
./src_pw/energy.cpp719 4.787e+00 4.000e-01
./src_pw/energy.cpp719 3.787e+00 4.000e-01
./src_pw/energy.cpp719 4.787e+00 4.000e-01
./src_pw/energy.cpp719 7.787e+00 4.000e-01
./src_pw/energy.cpp719 4.897e+00 4.000e-01
./src_pw/energy.cpp719 1.897e+00 4.000e-01
./src_pw/energy.cpp719 8.974e-01 4.000e-01
./src_pw/energy.cpp719 1.897e+00 4.000e-01
./src_pw/energy.cpp719 4.897e+00 4.000e-01
./src_pw/energy.cpp719 4.008e+00 4.000e-01
./src_pw/energy.cpp719 1.008e+00 4.000e-01
./src_pw/energy.cpp719 8.187e-03 4.000e-01
./src_pw/energy.cpp719 1.008e+00 4.000e-01
./src_pw/energy.cpp719 4.008e+00 4.000e-01
./src_pw/energy.cpp719 5.119e+00 4.000e-01
./src_pw/energy.cpp719 2.119e+00 4.000e-01
./src_pw/energy.cpp719 1.119e+00 4.000e-01
./src_pw/energy.cpp719 2.119e+00 4.000e-01
./src_pw/energy.cpp719 5.119e+00 4.000e-01
./src_pw/energy.cpp719 8.230e+00 4.000e-01
./src_pw/energy.cpp719 5.230e+00 4.000e-01
./src_pw/energy.cpp719 4.230e+00 4.000e-01
./src_pw/energy.cpp719 5.230e+00 4.000e-01
./src_pw/energy.cpp719 8.230e+00 4.000e-01
./src_pw/energy.cpp719 8.644e+00 4.000e-01
./src_pw/energy.cpp719 5.644e+00 4.000e-01
./src_pw/energy.cpp719 4.644e+00 4.000e-01
./src_pw/energy.cpp719 5.644e+00 4.000e-01
./src_pw/energy.cpp719 8.644e+00 4.000e-01
./src_pw/energy.cpp719 5.754e+00 4.000e-01
./src_pw/energy.cpp719 2.754e+00 4.000e-01
./src_pw/energy.cpp719 1.754e+00 4.000e-01
./src_pw/energy.cpp719 2.754e+00 4.000e-01
./src_pw/energy.cpp719 5.754e+00 4.000e-01
./src_pw/energy.cpp719 4.865e+00 4.000e-01
./src_pw/energy.cpp719 1.865e+00 4.000e-01
./src_pw/energy.cpp719 8.651e-01 4.000e-01
./src_pw/energy.cpp719 1.865e+00 4.000e-01
./src_pw/energy.cpp719 4.865e+00 4.000e-01
./src_pw/energy.cpp719 5.976e+00 4.000e-01
./src_pw/energy.cpp719 2.976e+00 4.000e-01
./src_pw/energy.cpp719 1.976e+00 4.000e-01
./src_pw/energy.cpp719 2.976e+00 4.000e-01
./src_pw/energy.cpp719 5.976e+00 4.000e-01
./src_pw/energy.cpp719 9.087e+00 4.000e-01
./src_pw/energy.cpp719 6.087e+00 4.000e-01
./src_pw/energy.cpp719 5.087e+00 4.000e-01
./src_pw/energy.cpp719 6.087e+00 4.000e-01
./src_pw/energy.cpp719 9.087e+00 4.000e-01
./src_pw/energy.cpp719 1.150e+01 4.000e-01
./src_pw/energy.cpp719 8.500e+00 4.000e-01
./src_pw/energy.cpp719 7.500e+00 4.000e-01
./src_pw/energy.cpp719 8.500e+00 4.000e-01
./src_pw/energy.cpp719 1.150e+01 4.000e-01
./src_pw/energy.cpp719 8.611e+00 4.000e-01
./src_pw/energy.cpp719 5.611e+00 4.000e-01
./src_pw/energy.cpp719 4.611e+00 4.000e-01
./src_pw/energy.cpp719 5.611e+00 4.000e-01
./src_pw/energy.cpp719 8.611e+00 4.000e-01
./src_pw/energy.cpp719 7.722e+00 4.000e-01
./src_pw/energy.cpp719 4.722e+00 4.000e-01
./src_pw/energy.cpp719 3.722e+00 4.000e-01
./src_pw/energy.cpp719 4.722e+00 4.000e-01
./src_pw/energy.cpp719 7.722e+00 4.000e-01
./src_pw/energy.cpp719 8.833e+00 4.000e-01
./src_pw/energy.cpp719 5.833e+00 4.000e-01
./src_pw/energy.cpp719 4.833e+00 4.000e-01
./src_pw/energy.cpp719 5.833e+00 4.000e-01
./src_pw/energy.cpp719 8.833e+00 4.000e-01
./src_pw/energy.cpp719 1.194e+01 4.000e-01
./src_pw/energy.cpp719 8.944e+00 4.000e-01
./src_pw/energy.cpp719 7.944e+00 4.000e-01
./src_pw/energy.cpp719 8.944e+00 4.000e-01
./src_pw/energy.cpp719 1.194e+01 4.000e-01
./src_pw/stress.cpp1384 1 6 1 4.000e-01
./src_pw/stress.cpp1388 -5.272e-01
./src_pw/stress.cpp1381 0.000e+00 0.000e+00 0.000e+00 
./src_pw/energy.cpp719 1.200e+01 4.000e-01
./src_pw/energy.cpp719 9.000e+00 4.000e-01
./src_pw/energy.cpp719 8.000e+00 4.000e-01
./src_pw/energy.cpp719 9.000e+00 4.000e-01
./src_pw/energy.cpp719 1.200e+01 4.000e-01
./src_pw/energy.cpp719 9.000e+00 4.000e-01
./src_pw/energy.cpp719 6.000e+00 4.000e-01
./src_pw/energy.cpp719 5.000e+00 4.000e-01
./src_pw/energy.cpp719 6.000e+00 4.000e-01
./src_pw/energy.cpp719 9.000e+00 4.000e-01
./src_pw/energy.cpp719 8.000e+00 4.000e-01
./src_pw/energy.cpp719 5.000e+00 4.000e-01
./src_pw/energy.cpp719 4.000e+00 4.000e-01
./src_pw/energy.cpp719 5.000e+00 4.000e-01
./src_pw/energy.cpp719 8.000e+00 4.000e-01
./src_pw/energy.cpp719 9.000e+00 4.000e-01
./src_pw/energy.cpp719 6.000e+00 4.000e-01
./src_pw/energy.cpp719 5.000e+00 4.000e-01
./src_pw/energy.cpp719 6.000e+00 4.000e-01
./src_pw/energy.cpp719 9.000e+00 4.000e-01
./src_pw/energy.cpp719 1.200e+01 4.000e-01
./src_pw/energy.cpp719 9.000e+00 4.000e-01
./src_pw/energy.cpp719 8.000e+00 4.000e-01
./src_pw/energy.cpp719 9.000e+00 4.000e-01
./src_pw/energy.cpp719 1.200e+01 4.000e-01
./src_pw/energy.cpp719 9.000e+00 4.000e-01
./src_pw/energy.cpp719 6.000e+00 4.000e-01
./src_pw/energy.cpp719 5.000e+00 4.000e-01
./src_pw/energy.cpp719 6.000e+00 4.000e-01
./src_pw/energy.cpp719 9.000e+00 4.000e-01
./src_pw/energy.cpp719 6.000e+00 4.000e-01
./src_pw/energy.cpp719 3.000e+00 4.000e-01
./src_pw/energy.cpp719 2.000e+00 4.000e-01
./src_pw/energy.cpp719 3.000e+00 4.000e-01
./src_pw/energy.cpp719 6.000e+00 4.000e-01
./src_pw/energy.cpp719 5.000e+00 4.000e-01
./src_pw/energy.cpp719 2.000e+00 4.000e-01
./src_pw/energy.cpp719 1.000e+00 4.000e-01
./src_pw/energy.cpp719 2.000e+00 4.000e-01
./src_pw/energy.cpp719 5.000e+00 4.000e-01
./src_pw/energy.cpp719 6.000e+00 4.000e-01
./src_pw/energy.cpp719 3.000e+00 4.000e-01
./src_pw/energy.cpp719 2.000e+00 4.000e-01
./src_pw/energy.cpp719 3.000e+00 4.000e-01
./src_pw/energy.cpp719 6.000e+00 4.000e-01
./src_pw/energy.cpp719 9.000e+00 4.000e-01
./src_pw/energy.cpp719 6.000e+00 4.000e-01
./src_pw/energy.cpp719 5.000e+00 4.000e-01
./src_pw/energy.cpp719 6.000e+00 4.000e-01
./src_pw/energy.cpp719 9.000e+00 4.000e-01
./src_pw/energy.cpp719 8.000e+00 4.000e-01
./src_pw/energy.cpp719 5.000e+00 4.000e-01
./src_pw/energy.cpp719 4.000e+00 4.000e-01
./src_pw/energy.cpp719 5.000e+00 4.000e-01
./src_pw/energy.cpp719 8.000e+00 4.000e-01
./src_pw/energy.cpp719 5.000e+00 4.000e-01
./src_pw/energy.cpp719 2.000e+00 4.000e-01
./src_pw/energy.cpp719 1.000e+00 4.000e-01
./src_pw/energy.cpp719 2.000e+00 4.000e-01
./src_pw/energy.cpp719 5.000e+00 4.000e-01
./src_pw/energy.cpp719 4.000e+00 4.000e-01
./src_pw/energy.cpp719 1.000e+00 4.000e-01
./src_pw/energy.cpp719 0.000e+00 4.000e-01
./src_pw/energy.cpp719 1.000e+00 4.000e-01
./src_pw/energy.cpp719 4.000e+00 4.000e-01
./src_pw/energy.cpp719 5.000e+00 4.000e-01
./src_pw/energy.cpp719 2.000e+00 4.000e-01
./src_pw/energy.cpp719 1.000e+00 4.000e-01
./src_pw/energy.cpp719 2.000e+00 4.000e-01
./src_pw/energy.cpp719 5.000e+00 4.000e-01
./src_pw/energy.cpp719 8.000e+00 4.000e-01
./src_pw/energy.cpp719 5.000e+00 4.000e-01
./src_pw/energy.cpp719 4.000e+00 4.000e-01
./src_pw/energy.cpp719 5.000e+00 4.000e-01
./src_pw/energy.cpp719 8.000e+00 4.000e-01
./src_pw/energy.cpp719 9.000e+00 4.000e-01
./src_pw/energy.cpp719 6.000e+00 4.000e-01
./src_pw/energy.cpp719 5.000e+00 4.000e-01
./src_pw/energy.cpp719 6.000e+00 4.000e-01
./src_pw/energy.cpp719 9.000e+00 4.000e-01
./src_pw/energy.cpp719 6.000e+00 4.000e-01
./src_pw/energy.cpp719 3.000e+00 4.000e-01
./src_pw/energy.cpp719 2.000e+00 4.000e-01
./src_pw/energy.cpp719 3.000e+00 4.000e-01
./src_pw/energy.cpp719 6.000e+00 4.000e-01
./src_pw/energy.cpp719 5.000e+00 4.000e-01
./src_pw/energy.cpp719 2.000e+00 4.000e-01
./src_pw/energy.cpp719 1.000e+00 4.000e-01
./src_pw/energy.cpp719 2.000e+00 4.000e-01
./src_pw/energy.cpp719 5.000e+00 4.000e-01
./src_pw/energy.cpp719 6.000e+00 4.000e-01
./src_pw/energy.cpp719 3.000e+00 4.000e-01
./src_pw/energy.cpp719 2.000e+00 4.000e-01
./src_pw/energy.cpp719 3.000e+00 4.000e-01
./src_pw/energy.cpp719 6.000e+00 4.000e-01
./src_pw/energy.cpp719 9.000e+00 4.000e-01
./src_pw/energy.cpp719 6.000e+00 4.000e-01
./src_pw/energy.cpp719 5.000e+00 4.000e-01
./src_pw/energy.cpp719 6.000e+00 4.000e-01
./src_pw/energy.cpp719 9.000e+00 4.000e-01
./src_pw/energy.cpp719 1.200e+01 4.000e-01
./src_pw/energy.cpp719 9.000e+00 4.000e-01
./src_pw/energy.cpp719 8.000e+00 4.000e-01
./src_pw/energy.cpp719 9.000e+00 4.000e-01
./src_pw/energy.cpp719 1.200e+01 4.000e-01
./src_pw/energy.cpp719 9.000e+00 4.000e-01
./src_pw/energy.cpp719 6.000e+00 4.000e-01
./src_pw/energy.cpp719 5.000e+00 4.000e-01
./src_pw/energy.cpp719 6.000e+00 4.000e-01
./src_pw/energy.cpp719 9.000e+00 4.000e-01
./src_pw/energy.cpp719 8.000e+00 4.000e-01
./src_pw/energy.cpp719 5.000e+00 4.000e-01
./src_pw/energy.cpp719 4.000e+00 4.000e-01
./src_pw/energy.cpp719 5.000e+00 4.000e-01
./src_pw/energy.cpp719 8.000e+00 4.000e-01
./src_pw/energy.cpp719 9.000e+00 4.000e-01
./src_pw/energy.cpp719 6.000e+00 4.000e-01
./src_pw/energy.cpp719 5.000e+00 4.000e-01
./src_pw/energy.cpp719 6.000e+00 4.000e-01
./src_pw/energy.cpp719 9.000e+00 4.000e-01
./src_pw/energy.cpp719 1.200e+01 4.000e-01
./src_pw/energy.cpp719 9.000e+00 4.000e-01
./src_pw/energy.cpp719 8.000e+00 4.000e-01
./src_pw/energy.cpp719 9.000e+00 4.000e-01
./src_pw/energy.cpp719 1.200e+01 4.000e-01
./src_pw/stress.cpp1384 0 6 6 4.000e-01
./src_pw/stress.cpp1405 -1.199e-02
./src_pw/stress.cpp1405 4.337e-19
./src_pw/stress.cpp1405 -3.900e-03
./src_pw/stress.cpp1405 -2.309e-20
./src_pw/stress.cpp1405 -5.213e-20
./src_pw/stress.cpp1405 6.078e-03
 ------------------- TOTAL      STRESS --------------------
 STRESS  
 +1080.16       +0             +0             
 +0             +372.077       +0             
 +0             +0             -596.391       
 ------------------- KINETIC    STRESS --------------------
+0.01755795    0              0              
0              +0.017776241   0              
0              0              +0.018158518   
 ------------------- LOCAL    STRESS --------------------
-0.034591151   0              0              
0              -0.030936513   0              
0              0              -0.027435813   
 ------------------- HARTREE    STRESS --------------------
+0.010210008   0              0              
0              +0.009846972   0              
0              0              +0.0096598553  
 ------------------- NON-LOCAL    STRESS --------------------
+0.0050018231  0              0              
0              +0.0047687305  0              
0              0              +0.0044672853  
 ------------------- XC    STRESS --------------------
-0.0028262318  0              0              
0              -0.0028262318  0              
0              0              -0.0028262318  
 ------------------- EWALD    STRESS --------------------
+0.011990357   0              0              
0              +0.0039001269  0              
0              0              -0.0060777923  
 ------------------- NLCC    STRESS --------------------
0              0              0              
0              0              0              
0              0              0              
 ------------------- TOTAL    STRESS --------------------
+0.0073427548  0              0              
0              +0.0025293256  0              
0              0              -0.0040541784  

  |CLASS_NAME---------|NAME---------------|TIME(Sec)-----|CALLS----|AVG------|PER%-------
 A DC_Driv             solve_eachf         0.45           1         0.45      80.12     %
 B Run_Frag            frag_pw_line        0.45           1         0.45      80.11     %
 X FFT                 FFT3D               0.21           544       0.00      38.18     %
 H Hamilt_PW           h_psi               0.19           222       0.00      34.32     %
 C Ions                opt_ions_pw         0.39           1         0.39      69.37     %
 D electrons           self_consistent     0.33           1         0.33      57.86     %
 E electrons           c_bands             0.21           9         0.02      37.36     %
 F Hamilt              diago               0.21           9         0.02      36.93     %
 G Diago_CG            diag                0.15           9         0.02      27.23     %
 ----------------------------------------------------------------------------------------

 START  Time  : Wed May  5 19:18:58 2021
 FINISH Time  : Wed May  5 19:18:59 2021
 TOTAL  Time  : 1.00
 SEE INFORMATION IN : OUT.autotest/
