<PP_INFO>
Generated using ld1 code (maybe, or maybe not)                                  
Author: unknown    Generation date: as well                                     
Info: automatically converted from PWSCF format                                 
    1        The Pseudo was generated with a Scalar-Relativistic Calculation
nl pn  l   occ               Rcut            Rcut US             E pseu
*S  0  0  2.00      0.00000000000      0.00000000000      0.00000000000
*P  0  1  6.00      0.00000000000      0.00000000000      0.00000000000
*D  0  2  0.00      0.00000000000      0.00000000000      0.00000000000
</PP_INFO>


<PP_HEADER>
   0                   Version Number
  Ti                   Element
   NC                  Norm - Conserving pseudopotential
    F                  Nonlinear Core Correction
SLA  PW   PBE  PBE     PBE  Exchange-Correlation functional
   12.00000000000      Z valence
    0.00000000000      Total energy
  0.0000000  0.0000000 Suggested cutoff for wfc and rho
    2                  Max angular momentum component
 1156                  Number of points in mesh
    3    2             Number of Wavefunctions, Number of Projectors
 Wavefunctions         nl  l   occ
                       *S  0  2.00
                       *P  1  6.00
                       *D  2  0.00
</PP_HEADER>


<PP_MESH>
  <PP_R>
  3.56883071601E-05  3.61552839256E-05  3.66283710201E-05  3.71076483965E-05
  3.75931970538E-05  3.80850990509E-05  3.85834375203E-05  3.90882966826E-05
  3.95997618600E-05  4.01179194914E-05  4.06428571467E-05  4.11746635416E-05
  4.17134285526E-05  4.22592432324E-05  4.28121998248E-05  4.33723917809E-05
  4.39399137744E-05  4.45148617179E-05  4.50973327791E-05  4.56874253968E-05
  4.62852392981E-05  4.68908755150E-05  4.75044364015E-05  4.81260256508E-05
  4.87557483130E-05  4.93937108127E-05  5.00400209671E-05  5.06947880042E-05
  5.13581225810E-05  5.20301368029E-05  5.27109442416E-05  5.34006599554E-05
  5.40994005079E-05  5.48072839878E-05  5.55244300291E-05  5.62509598313E-05
  5.69869961795E-05  5.77326634658E-05  5.84880877095E-05  5.92533965794E-05
  6.00287194142E-05  6.08141872455E-05  6.16099328192E-05  6.24160906182E-05
  6.32327968851E-05  6.40601896451E-05  6.48984087297E-05  6.57475957997E-05
  6.66078943700E-05  6.74794498330E-05  6.83624094835E-05  6.92569225440E-05
  7.01631401893E-05  7.10812155722E-05  7.20113038497E-05  7.29535622090E-05
  7.39081498939E-05  7.48752282321E-05  7.58549606621E-05  7.68475127609E-05
  7.78530522723E-05  7.88717491348E-05  7.99037755107E-05  8.09493058148E-05
  8.20085167443E-05  8.30815873082E-05  8.41686988582E-05  8.52700351186E-05
  8.63857822179E-05  8.75161287200E-05  8.86612656562E-05  8.98213865572E-05
  9.09966874864E-05  9.21873670723E-05  9.33936265427E-05  9.46156697583E-05
  9.58537032472E-05  9.71079362402E-05  9.83785807055E-05  9.96658513850E-05
  1.00969965831E-04  1.02291144441E-04  1.03629610498E-04  1.04985590206E-04
  1.06359312728E-04  1.07751010228E-04  1.09160917905E-04  1.10589274036E-04
  1.12036320019E-04  1.13502300406E-04  1.14987462951E-04  1.16492058652E-04
  1.18016341788E-04  1.19560569967E-04  1.21125004166E-04  1.22709908780E-04
  1.24315551660E-04  1.25942204164E-04  1.27590141200E-04  1.29259641274E-04
  1.30950986535E-04  1.32664462825E-04  1.34400359724E-04  1.36158970604E-04
  1.37940592675E-04  1.39745527033E-04  1.41574078719E-04  1.43426556760E-04
  1.45303274231E-04  1.47204548302E-04  1.49130700291E-04  1.51082055724E-04
  1.53058944383E-04  1.55061700369E-04  1.57090662151E-04  1.59146172628E-04
  1.61228579188E-04  1.63338233761E-04  1.65475492885E-04  1.67640717760E-04
  1.69834274316E-04  1.72056533269E-04  1.74307870185E-04  1.76588665546E-04
  1.78899304812E-04  1.81240178487E-04  1.83611682182E-04  1.86014216689E-04
  1.88448188042E-04  1.90914007586E-04  1.93412092053E-04  1.95942863623E-04
  1.98506750004E-04  2.01104184498E-04  2.03735606077E-04  2.06401459459E-04
  2.09102195179E-04  2.11838269668E-04  2.14610145328E-04  2.17418290614E-04
  2.20263180108E-04  2.23145294604E-04  2.26065121186E-04  2.29023153311E-04
  2.32019890895E-04  2.35055840392E-04  2.38131514886E-04  2.41247434172E-04
  2.44404124849E-04  2.47602120405E-04  2.50841961308E-04  2.54124195100E-04
  2.57449376486E-04  2.60818067429E-04  2.64230837247E-04  2.67688262704E-04
  2.71190928116E-04  2.74739425439E-04  2.78334354380E-04  2.81976322488E-04
  2.85665945267E-04  2.89403846270E-04  2.93190657212E-04  2.97027018072E-04
  3.00913577206E-04  3.04850991451E-04  3.08839926238E-04  3.12881055709E-04
  3.16975062822E-04  3.21122639475E-04  3.25324486619E-04  3.29581314375E-04
  3.33893842158E-04  3.38262798795E-04  3.42688922650E-04  3.47172961749E-04
  3.51715673904E-04  3.56317826845E-04  3.60980198348E-04  3.65703576363E-04
  3.70488759152E-04  3.75336555424E-04  3.80247784467E-04  3.85223276291E-04
  3.90263871765E-04  3.95370422762E-04  4.00543792302E-04  4.05784854696E-04
  4.11094495696E-04  4.16473612645E-04  4.21923114625E-04  4.27443922616E-04
  4.33036969647E-04  4.38703200957E-04  4.44443574152E-04  4.50259059369E-04
  4.56150639438E-04  4.62119310051E-04  4.68166079928E-04  4.74291970986E-04
  4.80498018516E-04  4.86785271355E-04  4.93154792063E-04  4.99607657105E-04
  5.06144957031E-04  5.12767796658E-04  5.19477295264E-04  5.26274586769E-04
  5.33160819931E-04  5.40137158542E-04  5.47204781617E-04  5.54364883603E-04
  5.61618674574E-04  5.68967380438E-04  5.76412243143E-04  5.83954520889E-04
  5.91595488339E-04  5.99336436835E-04  6.07178674615E-04  6.15123527036E-04
  6.23172336797E-04  6.31326464166E-04  6.39587287210E-04  6.47956202029E-04
  6.56434622987E-04  6.65023982959E-04  6.73725733567E-04  6.82541345428E-04
  6.91472308401E-04  7.00520131839E-04  7.09686344847E-04  7.18972496536E-04
  7.28380156289E-04  7.37910914021E-04  7.47566380455E-04  7.57348187386E-04
  7.67257987963E-04  7.77297456966E-04  7.87468291090E-04  7.97772209228E-04
  8.08210952770E-04  8.18786285885E-04  8.29499995832E-04  8.40353893253E-04
  8.51349812481E-04  8.62489611854E-04  8.73775174025E-04  8.85208406279E-04
  8.96791240861E-04  9.08525635297E-04  9.20413572728E-04  9.32457062243E-04
  9.44658139221E-04  9.57018865673E-04  9.69541330592E-04  9.82227650302E-04
  9.95079968824E-04  1.00810045823E-03  1.02129131901E-03  1.03465478045E-03
  1.04819310102E-03  1.06190856871E-03  1.07580350148E-03  1.08988024761E-03
  1.10414118608E-03  1.11858872705E-03  1.13322531217E-03  1.14805341507E-03
  1.16307554173E-03  1.17829423092E-03  1.19371205465E-03  1.20933161855E-03
  1.22515556237E-03  1.24118656040E-03  1.25742732191E-03  1.27388059163E-03
  1.29054915021E-03  1.30743581466E-03  1.32454343887E-03  1.34187491408E-03
  1.35943316935E-03  1.37722117205E-03  1.39524192841E-03  1.41349848398E-03
  1.43199392416E-03  1.45073137472E-03  1.46971400233E-03  1.48894501511E-03
  1.50842766314E-03  1.52816523903E-03  1.54816107849E-03  1.56841856085E-03
  1.58894110968E-03  1.60973219335E-03  1.63079532558E-03  1.65213406611E-03
  1.67375202122E-03  1.69565284441E-03  1.71784023697E-03  1.74031794862E-03
  1.76308977814E-03  1.78615957403E-03  1.80953123514E-03  1.83320871133E-03
  1.85719600416E-03  1.88149716754E-03  1.90611630842E-03  1.93105758748E-03
  1.95632521988E-03  1.98192347589E-03  2.00785668169E-03  2.03412922005E-03
  2.06074553109E-03  2.08771011303E-03  2.11502752294E-03  2.14270237754E-03
  2.17073935394E-03  2.19914319046E-03  2.22791868741E-03  2.25707070793E-03
  2.28660417876E-03  2.31652409114E-03  2.34683550161E-03  2.37754353287E-03
  2.40865337464E-03  2.44017028456E-03  2.47209958907E-03  2.50444668429E-03
  2.53721703697E-03  2.57041618536E-03  2.60404974020E-03  2.63812338565E-03
  2.67264288023E-03  2.70761405782E-03  2.74304282863E-03  2.77893518020E-03
  2.81529717844E-03  2.85213496859E-03  2.88945477635E-03  2.92726290884E-03
  2.96556575573E-03  3.00436979029E-03  3.04368157050E-03  3.08350774013E-03
  3.12385502992E-03  3.16473025863E-03  3.20614033430E-03  3.24809225531E-03
  3.29059311164E-03  3.33365008604E-03  3.37727045524E-03  3.42146159119E-03
  3.46623096228E-03  3.51158613466E-03  3.55753477346E-03  3.60408464410E-03
  3.65124361362E-03  3.69901965200E-03  3.74742083351E-03  3.79645533806E-03
  3.84613145259E-03  3.89645757250E-03  3.94744220301E-03  3.99909396064E-03
  4.05142157468E-03  4.10443388860E-03  4.15813986162E-03  4.21254857017E-03
  4.26766920946E-03  4.32351109500E-03  4.38008366421E-03  4.43739647798E-03
  4.49545922232E-03  4.55428170996E-03  4.61387388206E-03  4.67424580982E-03
  4.73540769625E-03  4.79736987785E-03  4.86014282638E-03  4.92373715061E-03
  4.98816359814E-03  5.05343305719E-03  5.11955655845E-03  5.18654527696E-03
  5.25441053397E-03  5.32316379886E-03  5.39281669110E-03  5.46338098220E-03
  5.53486859769E-03  5.60729161914E-03  5.68066228623E-03  5.75499299876E-03
  5.83029631880E-03  5.90658497280E-03  5.98387185372E-03  6.06217002323E-03
  6.14149271389E-03  6.22185333145E-03  6.30326545702E-03  6.38574284946E-03
  6.46929944764E-03  6.55394937282E-03  6.63970693105E-03  6.72658661555E-03
  6.81460310920E-03  6.90377128699E-03  6.99410621856E-03  7.08562317073E-03
  7.17833761008E-03  7.27226520558E-03  7.36742183120E-03  7.46382356864E-03
  7.56148671003E-03  7.66042776068E-03  7.76066344185E-03  7.86221069361E-03
  7.96508667769E-03  8.06930878037E-03  8.17489461545E-03  8.28186202717E-03
  8.39022909329E-03  8.50001412810E-03  8.61123568552E-03  8.72391256227E-03
  8.83806380100E-03  8.95370869356E-03  9.07086678419E-03  9.18955787290E-03
  9.30980201876E-03  9.43161954332E-03  9.55503103404E-03  9.68005734774E-03
  9.80671961417E-03  9.93503923955E-03  1.00650379102E-02  1.01967375962E-02
  1.03301605552E-02  1.04653293359E-02  1.06022667821E-02  1.07409960367E-02
  1.08815405451E-02  1.10239240598E-02  1.11681706439E-02  1.13143046754E-02
  1.14623508514E-02  1.16123341919E-02  1.17642800446E-02  1.19182140885E-02
  1.20741623390E-02  1.22321511517E-02  1.23922072271E-02  1.25543576149E-02
  1.27186297191E-02  1.28850513020E-02  1.30536504892E-02  1.32244557744E-02
  1.33974960241E-02  1.35728004825E-02  1.37503987766E-02  1.39303209207E-02
  1.41125973222E-02  1.42972587863E-02  1.44843365211E-02  1.46738621433E-02
  1.48658676831E-02  1.50603855899E-02  1.52574487377E-02  1.54570904307E-02
  1.56593444088E-02  1.58642448533E-02  1.60718263930E-02  1.62821241096E-02
  1.64951735439E-02  1.67110107018E-02  1.69296720603E-02  1.71511945736E-02
  1.73756156797E-02  1.76029733061E-02  1.78333058770E-02  1.80666523190E-02
  1.83030520682E-02  1.85425450768E-02  1.87851718196E-02  1.90309733012E-02
  1.92799910626E-02  1.95322671883E-02  1.97878443137E-02  2.00467656319E-02
  2.03090749012E-02  2.05748164525E-02  2.08440351967E-02  2.11167766325E-02
  2.13930868538E-02  2.16730125577E-02  2.19566010523E-02  2.22439002648E-02
  2.25349587493E-02  2.28298256955E-02  2.31285509366E-02  2.34311849578E-02
  2.37377789050E-02  2.40483845934E-02  2.43630545161E-02  2.46818418529E-02
  2.50048004797E-02  2.53319849774E-02  2.56634506407E-02  2.59992534884E-02
  2.63394502717E-02  2.66840984849E-02  2.70332563742E-02  2.73869829481E-02
  2.77453379874E-02  2.81083820548E-02  2.84761765057E-02  2.88487834982E-02
  2.92262660037E-02  2.96086878178E-02  2.99961135706E-02  3.03886087380E-02
  3.07862396526E-02  3.11890735149E-02  3.15971784050E-02  3.20106232933E-02
  3.24294780532E-02  3.28538134721E-02  3.32837012636E-02  3.37192140799E-02
  3.41604255236E-02  3.46074101606E-02  3.50602435322E-02  3.55190021684E-02
  3.59837636005E-02  3.64546063744E-02  3.69316100634E-02  3.74148552825E-02
  3.79044237011E-02  3.84003980576E-02  3.89028621728E-02  3.94119009642E-02
  3.99276004607E-02  4.04500478168E-02  4.09793313271E-02  4.15155404420E-02
  4.20587657821E-02  4.26090991537E-02  4.31666335644E-02  4.37314632390E-02
  4.43036836349E-02  4.48833914588E-02  4.54706846827E-02  4.60656625606E-02
  4.66684256450E-02  4.72790758045E-02  4.78977162403E-02  4.85244515041E-02
  4.91593875157E-02  4.98026315809E-02  5.04542924093E-02  5.11144801332E-02
  5.17833063259E-02  5.24608840206E-02  5.31473277296E-02  5.38427534635E-02
  5.45472787508E-02  5.52610226581E-02  5.59841058098E-02  5.67166504086E-02
  5.74587802562E-02  5.82106207746E-02  5.89722990263E-02  5.97439437370E-02
  6.05256853163E-02  6.13176558806E-02  6.21199892746E-02  6.29328210946E-02
  6.37562887112E-02  6.45905312924E-02  6.54356898270E-02  6.62919071490E-02
  6.71593279611E-02  6.80380988594E-02  6.89283683584E-02  6.98302869157E-02
  7.07440069577E-02  7.16696829052E-02  7.26074711998E-02  7.35575303298E-02
  7.45200208574E-02  7.54951054460E-02  7.64829488871E-02  7.74837181286E-02
  7.84975823028E-02  7.95247127553E-02  8.05652830735E-02  8.16194691164E-02
  8.26874490437E-02  8.37694033468E-02  8.48655148784E-02  8.59759688840E-02
  8.71009530330E-02  8.82406574503E-02  8.93952747488E-02  9.05650000615E-02
  9.17500310747E-02  9.29505680616E-02  9.41668139157E-02  9.53989741855E-02
  9.66472571090E-02  9.79118736489E-02  9.91930375286E-02  1.00490965268E-01
  1.01805876219E-01  1.03137992606E-01  1.04487539559E-01  1.05854745155E-01
  1.07239840454E-01  1.08643059542E-01  1.10064639566E-01  1.11504820776E-01
  1.12963846566E-01  1.14441963514E-01  1.15939421427E-01  1.17456473379E-01
  1.18993375753E-01  1.20550388292E-01  1.22127774133E-01  1.23725799858E-01
  1.25344735538E-01  1.26984854777E-01  1.28646434759E-01  1.30329756294E-01
  1.32035103868E-01  1.33762765689E-01  1.35513033736E-01  1.37286203807E-01
  1.39082575575E-01  1.40902452628E-01  1.42746142531E-01  1.44613956873E-01
  1.46506211317E-01  1.48423225659E-01  1.50365323880E-01  1.52332834198E-01
  1.54326089128E-01  1.56345425535E-01  1.58391184690E-01  1.60463712333E-01
  1.62563358725E-01  1.64690478711E-01  1.66845431781E-01  1.69028582125E-01
  1.71240298702E-01  1.73480955297E-01  1.75750930587E-01  1.78050608202E-01
  1.80380376794E-01  1.82740630098E-01  1.85131767004E-01  1.87554191620E-01
  1.90008313340E-01  1.92494546917E-01  1.95013312531E-01  1.97565035859E-01
  2.00150148148E-01  2.02769086289E-01  2.05422292887E-01  2.08110216343E-01
  2.10833310920E-01  2.13592036828E-01  2.16386860299E-01  2.19218253665E-01
  2.22086695437E-01  2.24992670389E-01  2.27936669638E-01  2.30919190726E-01
  2.33940737708E-01  2.37001821231E-01  2.40102958626E-01  2.43244673992E-01
  2.46427498287E-01  2.49651969416E-01  2.52918632322E-01  2.56228039079E-01
  2.59580748984E-01  2.62977328654E-01  2.66418352118E-01  2.69904400917E-01
  2.73436064203E-01  2.77013938835E-01  2.80638629481E-01  2.84310748724E-01
  2.88030917160E-01  2.91799763506E-01  2.95617924708E-01  2.99486046042E-01
  3.03404781230E-01  3.07374792549E-01  3.11396750939E-01  3.15471336121E-01
  3.19599236710E-01  3.23781150331E-01  3.28017783737E-01  3.32309852929E-01
  3.36658083276E-01  3.41063209642E-01  3.45525976501E-01  3.50047138073E-01
  3.54627458444E-01  3.59267711700E-01  3.63968682055E-01  3.68731163982E-01
  3.73555962355E-01  3.78443892573E-01  3.83395780711E-01  3.88412463648E-01
  3.93494789216E-01  3.98643616339E-01  4.03859815183E-01  4.09144267296E-01
  4.14497865765E-01  4.19921515360E-01  4.25416132690E-01  4.30982646359E-01
  4.36621997121E-01  4.42335138039E-01  4.48123034649E-01  4.53986665118E-01
  4.59927020414E-01  4.65945104472E-01  4.72041934361E-01  4.78218540460E-01
  4.84475966631E-01  4.90815270393E-01  4.97237523105E-01  5.03743810141E-01
  5.10335231080E-01  5.17012899888E-01  5.23777945106E-01  5.30631510044E-01
  5.37574752969E-01  5.44608847308E-01  5.51734981838E-01  5.58954360893E-01
  5.66268204566E-01  5.73677748912E-01  5.81184246164E-01  5.88788964937E-01
  5.96493190446E-01  6.04298224724E-01  6.12205386840E-01  6.20216013124E-01
  6.28331457390E-01  6.36553091168E-01  6.44882303934E-01  6.53320503343E-01
  6.61869115473E-01  6.70529585059E-01  6.79303375740E-01  6.88191970308E-01
  6.97196870958E-01  7.06319599538E-01  7.15561697812E-01  7.24924727715E-01
  7.34410271623E-01  7.44019932615E-01  7.53755334747E-01  7.63618123324E-01
  7.73609965181E-01  7.83732548963E-01  7.93987585412E-01  8.04376807653E-01
  8.14901971488E-01  8.25564855696E-01  8.36367262330E-01  8.47311017022E-01
  8.58397969292E-01  8.69629992862E-01  8.81008985971E-01  8.92536871695E-01
  9.04215598275E-01  9.16047139443E-01  9.28033494758E-01  9.40176689942E-01
  9.52478777225E-01  9.64941835688E-01  9.77567971618E-01  9.90359318862E-01
  1.00331803919E+00  1.01644632265E+00  1.02974638796E+00  1.04322048286E+00
  1.05687088451E+00  1.07069989985E+00  1.08470986602E+00  1.09890315074E+00
  1.11328215271E+00  1.12784930201E+00  1.14260706053E+00  1.15755792236E+00
  1.17270441423E+00  1.18804909595E+00  1.20359456078E+00  1.21934343597E+00
  1.23529838309E+00  1.25146209859E+00  1.26783731415E+00  1.28442679724E+00
  1.30123335152E+00  1.31825981733E+00  1.33550907218E+00  1.35298403125E+00
  1.37068764784E+00  1.38862291390E+00  1.40679286054E+00  1.42520055852E+00
  1.44384911879E+00  1.46274169300E+00  1.48188147404E+00  1.50127169657E+00
  1.52091563759E+00  1.54081661697E+00  1.56097799803E+00  1.58140318809E+00
  1.60209563904E+00  1.62305884798E+00  1.64429635772E+00  1.66581175746E+00
  1.68760868335E+00  1.70969081913E+00  1.73206189673E+00  1.75472569690E+00
  1.77768604990E+00  1.80094683607E+00  1.82451198654E+00  1.84838548388E+00
  1.87257136277E+00  1.89707371067E+00  1.92189666855E+00  1.94704443154E+00
  1.97252124967E+00  1.99833142858E+00  2.02447933027E+00  2.05096937378E+00
  2.07780603599E+00  2.10499385237E+00  2.13253741772E+00  2.16044138697E+00
  2.18871047596E+00  2.21734946223E+00  2.24636318583E+00  2.27575655016E+00
  2.30553452276E+00  2.33570213619E+00  2.36626448883E+00  2.39722674580E+00
  2.42859413981E+00  2.46037197200E+00  2.49256561290E+00  2.52518050334E+00
  2.55822215528E+00  2.59169615286E+00  2.62560815326E+00  2.65996388768E+00
  2.69476916233E+00  2.73002985939E+00  2.76575193799E+00  2.80194143524E+00
  2.83860446727E+00  2.87574723022E+00  2.91337600128E+00  2.95149713983E+00
  2.99011708842E+00  3.02924237391E+00  3.06887960857E+00  3.10903549119E+00
  3.14971680821E+00  3.19093043487E+00  3.23268333636E+00  3.27498256904E+00
  3.31783528156E+00  3.36124871614E+00  3.40523020975E+00  3.44978719538E+00
  3.49492720325E+00  3.54065786214E+00  3.58698690063E+00  3.63392214844E+00
  3.68147153775E+00  3.72964310451E+00  3.77844498984E+00  3.82788544135E+00
  3.87797281462E+00  3.92871557453E+00  3.98012229671E+00  4.03220166904E+00
  4.08496249305E+00  4.13841368544E+00  4.19256427959E+00  4.24742342709E+00
  4.30300039925E+00  4.35930458873E+00  4.41634551105E+00  4.47413280628E+00
  4.53267624060E+00  4.59198570799E+00  4.65207123190E+00  4.71294296692E+00
  4.77461120052E+00  4.83708635477E+00  4.90037898813E+00  4.96449979720E+00
  5.02945961856E+00  5.09526943056E+00  5.16194035522E+00  5.22948366008E+00
  5.29791076014E+00  5.36723321972E+00  5.43746275449E+00  5.50861123340E+00
  5.58069068073E+00  5.65371327806E+00  5.72769136640E+00  5.80263744820E+00
  5.87856418955E+00  5.95548442224E+00  6.03341114596E+00  6.11235753054E+00
  6.19233691808E+00  6.27336282530E+00  6.35544894577E+00  6.43860915224E+00
  6.52285749897E+00  6.60820822416E+00  6.69467575225E+00  6.78227469649E+00
  6.87101986129E+00  6.96092624480E+00  7.05200904142E+00  7.14428364434E+00
  7.23776564821E+00  7.33247085170E+00  7.42841526021E+00  7.52561508859E+00
  7.62408676382E+00  7.72384692787E+00  7.82491244043E+00  7.92730038181E+00
  8.03102805583E+00  8.13611299270E+00  8.24257295204E+00  8.35042592582E+00
  8.45969014145E+00  8.57038406486E+00  8.68252640357E+00  8.79613610991E+00
  8.91123238419E+00  9.02783467795E+00  9.14596269725E+00  9.26563640603E+00
  9.38687602940E+00  9.50970205717E+00  9.63413524722E+00  9.76019662906E+00
  9.88790750735E+00  1.00172894656E+01  1.01483643695E+01  1.02811543712E+01
  1.04156819125E+01  1.05519697287E+01  1.06900408530E+01  1.08299186197E+01
  1.09716266683E+01  1.11151889480E+01  1.12606297211E+01  1.14079735673E+01
  1.15572453883E+01  1.17084704113E+01  1.18616741936E+01  1.20168826271E+01
  1.21741219423E+01  1.23334187132E+01  1.24947998611E+01  1.26582926600E+01
  1.28239247405E+01  1.29917240947E+01  1.31617190813E+01  1.33339384297E+01
  1.35084112454E+01  1.36851670148E+01  1.38642356100E+01  1.40456472940E+01
  1.42294327258E+01  1.44156229656E+01  1.46042494800E+01  1.47953441474E+01
  1.49889392631E+01  1.51850675452E+01  1.53837621399E+01  1.55850566270E+01
  1.57889850258E+01  1.59955818006E+01  1.62048818668E+01  1.64169205966E+01
  1.66317338250E+01  1.68493578561E+01  1.70698294687E+01  1.72931859232E+01
  1.75194649672E+01  1.77487048425E+01  1.79809442912E+01  1.82162225623E+01
  1.84545794183E+01  1.86960551422E+01  1.89406905438E+01  1.91885269673E+01
  1.94396062975E+01  1.96939709674E+01  1.99516639653E+01  2.02127288419E+01
  2.04772097178E+01  2.07451512909E+01  2.10165988439E+01  2.12915982521E+01
  2.15701959911E+01  2.18524391446E+01  2.21383754123E+01  2.24280531181E+01
  2.27215212183E+01  2.30188293096E+01  2.33200276379E+01  2.36251671064E+01
  2.39342992843E+01  2.42474764158E+01  2.45647514285E+01  2.48861779427E+01
  2.52118102802E+01  2.55417034736E+01  2.58759132757E+01  2.62144961687E+01
  2.65575093740E+01  2.69050108616E+01  2.72570593600E+01  2.76137143663E+01
  2.79750361561E+01  2.83410857936E+01  2.87119251421E+01  2.90876168742E+01
  2.94682244828E+01  2.98538122915E+01  3.02444454655E+01  3.06401900228E+01
  3.10411128451E+01  3.14472816894E+01  3.18587651991E+01  3.22756329160E+01
  3.26979552917E+01  3.31258036996E+01  3.35592504472E+01  3.39983687880E+01
  3.44432329340E+01  3.48939180684E+01  3.53505003580E+01  3.58130569663E+01
  3.62816660665E+01  3.67564068545E+01  3.72373595628E+01  3.77246054736E+01
  3.82182269324E+01  3.87183073625E+01  3.92249312787E+01  3.97381843017E+01
  4.02581531724E+01  4.07849257668E+01  4.13185911108E+01  4.18592393950E+01
  4.24069619902E+01  4.29618514630E+01  4.35240015909E+01  4.40935073787E+01
  4.46704650742E+01  4.52549721846E+01  4.58471274930E+01  4.64470310751E+01
  4.70547843159E+01  4.76704899274E+01  4.82942519650E+01  4.89261758462E+01
  4.95663683676E+01  5.02149377232E+01  5.08719935228E+01  5.15376468104E+01
  5.22120100829E+01  5.28951973095E+01  5.35873239502E+01  5.42885069763E+01
  5.49988648892E+01  5.57185177412E+01  5.64475871554E+01  5.71861963461E+01
  5.79344701401E+01  5.86925349974E+01  5.94605190329E+01  6.02385520376E+01
  6.10267655009E+01  6.18252926329E+01  6.26342683865E+01  6.34538294805E+01
  6.42841144227E+01  6.51252635333E+01  6.59774189684E+01  6.68407247443E+01
  6.77153267618E+01  6.86013728308E+01  6.94990126949E+01  7.04083980577E+01
  7.13296826073E+01  7.22630220430E+01  7.32085741015E+01  7.41664985832E+01
  7.51369573797E+01  7.61201145008E+01  7.71161361025E+01  7.81251905147E+01
  7.91474482700E+01  8.01830821325E+01  8.12322671267E+01  8.22951805674E+01
  8.33720020895E+01  8.44629136784E+01  8.55680997007E+01  8.66877469355E+01
  8.78220446058E+01  8.89711844108E+01  9.01353605576E+01  9.13147697950E+01
  9.25096114457E+01  9.37200874410E+01  9.49464023541E+01  9.61887634352E+01
  9.74473806463E+01  9.87224666966E+01  1.00014237079E+02  1.01322910105E+02
  1.02648706944E+02  1.03991851659E+02  1.05352571245E+02  1.06731095665E+02
  1.08127657895E+02  1.09542493957E+02  1.10975842961E+02  1.12427947146E+02
  1.13899051922E+02  1.15389405909E+02  1.16899260980E+02  1.18428872304E+02
  </PP_R>
  <PP_RAB>
  4.63947993081E-07  4.70018691032E-07  4.76168823261E-07  4.82399429154E-07
  4.88711561699E-07  4.95106287661E-07  5.01584687765E-07  5.08147856874E-07
  5.14796904180E-07  5.21532953388E-07  5.28357142907E-07  5.35270626041E-07
  5.42274571184E-07  5.49370162021E-07  5.56558597722E-07  5.63841093151E-07
  5.71218879067E-07  5.78693202333E-07  5.86265326128E-07  5.93936530158E-07
  6.01708110875E-07  6.09581381695E-07  6.17557673220E-07  6.25638333461E-07
  6.33824728069E-07  6.42118240566E-07  6.50520272573E-07  6.59032244054E-07
  6.67655593553E-07  6.76391778437E-07  6.85242275141E-07  6.94208579421E-07
  7.03292206603E-07  7.12494691841E-07  7.21817590378E-07  7.31262477807E-07
  7.40830950334E-07  7.50524625055E-07  7.60345140224E-07  7.70294155532E-07
  7.80373352385E-07  7.90584434192E-07  8.00929126650E-07  8.11409178037E-07
  8.22026359506E-07  8.32782465386E-07  8.43679313485E-07  8.54718745397E-07
  8.65902626810E-07  8.77232847828E-07  8.88711323286E-07  9.00339993072E-07
  9.12120822460E-07  9.24055802438E-07  9.36146950046E-07  9.48396308717E-07
  9.60805948621E-07  9.73377967017E-07  9.86114488607E-07  9.99017665892E-07
  1.01208967954E-06  1.02533273875E-06  1.03874908164E-06  1.05234097559E-06
  1.06611071768E-06  1.08006063501E-06  1.09419308516E-06  1.10851045654E-06
  1.12301516883E-06  1.13770967336E-06  1.15259645353E-06  1.16767802524E-06
  1.18295693732E-06  1.19843577194E-06  1.21411714506E-06  1.23000370686E-06
  1.24609814221E-06  1.26240317112E-06  1.27892154917E-06  1.29565606801E-06
  1.31260955580E-06  1.32978487773E-06  1.34718493647E-06  1.36481267268E-06
  1.38267106547E-06  1.40076313296E-06  1.41909193276E-06  1.43766056247E-06
  1.45647216024E-06  1.47552990527E-06  1.49483701837E-06  1.51439676248E-06
  1.53421244324E-06  1.55428740957E-06  1.57462505416E-06  1.59522881413E-06
  1.61610217158E-06  1.63724865413E-06  1.65867183561E-06  1.68037533657E-06
  1.70236282496E-06  1.72463801672E-06  1.74720467642E-06  1.77006661786E-06
  1.79322770477E-06  1.81669185143E-06  1.84046302334E-06  1.86454523788E-06
  1.88894256501E-06  1.91365912792E-06  1.93869910378E-06  1.96406672441E-06
  1.98976627698E-06  2.01580210479E-06  2.04217860796E-06  2.06890024417E-06
  2.09597152944E-06  2.12339703890E-06  2.15118140750E-06  2.17932933089E-06
  2.20784556611E-06  2.23673493250E-06  2.26600231241E-06  2.29565265210E-06
  2.32569096256E-06  2.35612232032E-06  2.38695186837E-06  2.41818481696E-06
  2.44982644454E-06  2.48188209862E-06  2.51435719669E-06  2.54725722710E-06
  2.58058775005E-06  2.61435439847E-06  2.64856287900E-06  2.68321897297E-06
  2.71832853733E-06  2.75389750568E-06  2.78993188926E-06  2.82643777798E-06
  2.86342134140E-06  2.90088882985E-06  2.93884657542E-06  2.97730099305E-06
  3.01625858163E-06  3.05572592509E-06  3.09570969351E-06  3.13621664424E-06
  3.17725362304E-06  3.21882756526E-06  3.26094549701E-06  3.30361453630E-06
  3.34684189432E-06  3.39063487658E-06  3.43500088421E-06  3.47994741516E-06
  3.52548206550E-06  3.57161253071E-06  3.61834660694E-06  3.66569219235E-06
  3.71365728847E-06  3.76225000151E-06  3.81147854375E-06  3.86135123494E-06
  3.91187650368E-06  3.96306288886E-06  4.01491904110E-06  4.06745372421E-06
  4.12067581668E-06  4.17459431318E-06  4.22921832605E-06  4.28455708688E-06
  4.34061994806E-06  4.39741638434E-06  4.45495599445E-06  4.51324850273E-06
  4.57230376075E-06  4.63213174899E-06  4.69274257852E-06  4.75414649271E-06
  4.81635386898E-06  4.87937522051E-06  4.94322119807E-06  5.00790259178E-06
  5.07343033294E-06  5.13981549591E-06  5.20706929993E-06  5.27520311105E-06
  5.34422844405E-06  5.41415696439E-06  5.48500049013E-06  5.55677099401E-06
  5.62948060542E-06  5.70314161244E-06  5.77776646398E-06  5.85336777179E-06
  5.92995831270E-06  6.00755103067E-06  6.08615903906E-06  6.16579562282E-06
  6.24647424071E-06  6.32820852762E-06  6.41101229682E-06  6.49489954237E-06
  6.57988444140E-06  6.66598135656E-06  6.75320483843E-06  6.84156962799E-06
  6.93109065911E-06  7.02178306104E-06  7.11366216103E-06  7.20674348685E-06
  7.30104276947E-06  7.39657594569E-06  7.49335916086E-06  7.59140877156E-06
  7.69074134841E-06  7.79137367885E-06  7.89332276999E-06  7.99660585146E-06
  8.10124037836E-06  8.20724403416E-06  8.31463473374E-06  8.42343062637E-06
  8.53365009883E-06  8.64531177847E-06  8.75843453638E-06  8.87303749056E-06
  8.98914000921E-06  9.10676171391E-06  9.22592248301E-06  9.34664245497E-06
  9.46894203175E-06  9.59284188228E-06  9.71836294591E-06  9.84552643601E-06
  9.97435384352E-06  1.01048669406E-05  1.02370877842E-05  1.03710387200E-05
  1.05067423860E-05  1.06442217165E-05  1.07834999458E-05  1.09246006123E-05
  1.10675475623E-05  1.12123649541E-05  1.13590772623E-05  1.15077092816E-05
  1.16582861312E-05  1.18108332589E-05  1.19653764455E-05  1.21219418092E-05
  1.22805558099E-05  1.24412452538E-05  1.26040372977E-05  1.27689594539E-05
  1.29360395947E-05  1.31053059570E-05  1.32767871471E-05  1.34505121459E-05
  1.36265103133E-05  1.38048113933E-05  1.39854455193E-05  1.41684432189E-05
  1.43538354191E-05  1.45416534517E-05  1.47319290583E-05  1.49246943959E-05
  1.51199820425E-05  1.53178250020E-05  1.55182567104E-05  1.57213110411E-05
  1.59270223108E-05  1.61354252852E-05  1.63465551848E-05  1.65604476912E-05
  1.67771389527E-05  1.69966655905E-05  1.72190647054E-05  1.74443738831E-05
  1.76726312015E-05  1.79038752367E-05  1.81381450694E-05  1.83754802918E-05
  1.86159210141E-05  1.88595078713E-05  1.91062820303E-05  1.93562851964E-05
  1.96095596208E-05  1.98661481074E-05  2.01260940203E-05  2.03894412910E-05
  2.06562344259E-05  2.09265185135E-05  2.12003392326E-05  2.14777428594E-05
  2.17587762759E-05  2.20434869774E-05  2.23319230806E-05  2.26241333320E-05
  2.29201671158E-05  2.32200744624E-05  2.35239060568E-05  2.38317132473E-05
  2.41435480541E-05  2.44594631780E-05  2.47795120094E-05  2.51037486373E-05
  2.54322278584E-05  2.57650051866E-05  2.61021368620E-05  2.64436798607E-05
  2.67896919041E-05  2.71402314693E-05  2.74953577982E-05  2.78551309080E-05
  2.82196116012E-05  2.85888614760E-05  2.89629429364E-05  2.93419192030E-05
  2.97258543239E-05  3.01148131849E-05  3.05088615210E-05  3.09080659273E-05
  3.13124938703E-05  3.17222136993E-05  3.21372946579E-05  3.25578068958E-05