                                                                                     
                             WELCOME TO ABACUS                                       
                                                                                     
               'Atomic-orbital Based Ab-initio Computation at UStc'                  
                                                                                     
    Version: Parallel, under ALPHA test
    Processor Number is 1
    Start Time is Wed Sep 30 16:31:25 2015
                                                                                     
 ------------------------------------------------------------------------------------

 READING GENERAL INFORMATION
                           global_out_dir = OUT.N-6-1.5/
                           global_in_card = INPUT
                               pseudo_dir = ./
                              pseudo_type = upf
                                    DRANK = 1
                                    DSIZE = 1
                                   DCOLOR = 1
                                    GRANK = 1
                                    GSIZE = 1
Open file : INPUTw




 >>>>>>>>>>>>>>>>>>>>>>>>>>>>>>>>>>>>>>>>>>>>>>>>>>>>>>>>>>>>>>>>>>>>>>
 |                                                                    |
 | Reading atom information in unitcell:                              |
 | From the input file and the structure file we know the number of   |
 | different elments in this unitcell, then we list the detail        |
 | information for each element, especially the zeta and polar atomic |
 | orbital number for each element. The total atom number is counted. |
 | We calculate the nearest atom distance for each atom and show the  |
 | Cartesian and Direct coordinates for each atom. We list the file   |
 | address for atomic orbitals and nonlocal projectors. The volume    |
 | and the lattice vectors in real and reciprocal space is also shown.|
 |                                                                    |
 <<<<<<<<<<<<<<<<<<<<<<<<<<<<<<<<<<<<<<<<<<<<<<<<<<<<<<<<<<<<<<<<<<<<<<




 READING UNITCELL INFORMATION
                                    ntype = 1
                 atom label for species 1 = N
                  lattice constant (Bohr) = 20
              lattice constant (Angstrom) = 10.5835

 READING ATOM TYPE 1
                               atom label = N
                      start magnetization = FALSE
                      L=0, number of zeta = 1
                      L=1, number of zeta = 1
                      L=2, number of zeta = 1
             number of atom for this type = 2

                        TOTAL ATOM NUMBER = 2

 Output nearest atom not considering periodic boundary condition
  TYPE INDEX       NEAREST(Bohr)   NEAREST(Angstrom)
     N     1                   0                   0
     N     2                   0                   0

 CARTESIAN COORDINATES ( UNIT = 20 Bohr ).
         atom                   x                   y                   z mag
      tauc_N1                   0                   0                   0 0
      tauc_N2                   0                   0      0.141729515834 0

 DIRECT COORDINATES
         atom                   x                   y                   z mag
      taud_N1                   0                   0                   0 0
      taud_N2                   0                   0      0.141729515834 0


                          Volume (Bohr^3) = 8000
                             Volume (A^3) = 1185.47627437

 Lattice vectors: (Cartesian coordinate: in unit of a_0)
                   +1                  +0                  +0
                   +0                  +1                  +0
                   +0                  +0                  +1
 Reciprocal vectors: (Cartesian coordinate: in unit of 2 pi/a_0)
                   +1                  +0                  +0
                   +0                  +1                  +0
                   +0                  +0                  +1




 >>>>>>>>>>>>>>>>>>>>>>>>>>>>>>>>>>>>>>>>>>>>>>>>>>>>>>>>>>>>>>>>>>>>>>
 |                                                                    |
 | Reading pseudopotentials files:                                    |
 | The pseudopotential file is in UPF format. The 'NC' indicates that |
 | the type of pseudopotential is 'norm conserving'. Functional of    |
 | exchange and correlation is decided by 4 given parameters in UPF   |
 | file.  We also read in the 'core correction' if there exists.      |
 | Also we can read the valence electrons number and the maximal      |
 | angular momentum used in this pseudopotential. We also read in the |
 | trail wave function, trail atomic density and local-pseudopotential|
 | on logrithmic grid. The non-local pseudopotential projector is also|
 | read in if there is any.                                           |
 |                                                                    |
 <<<<<<<<<<<<<<<<<<<<<<<<<<<<<<<<<<<<<<<<<<<<<<<<<<<<<<<<<<<<<<<<<<<<<<




                PAO radial cut off (Bohr) = 15

 Read in pseudopotential file is N.LDA.UPF
                     pseudopotential type = NC
                            functional Ex = SLA
                            functional Ec = PZ
                          functional GCEx = NOGX
                          functional GCEc = NOGC
                 nonlocal core correction = 0
                        valence electrons = 5
                                     lmax = 1
                           number of zeta = 2
                     number of projectors = 1
                           L of projector = 1

 SETUP THE ELECTRONS NUMBER
             electron number of element N = 5
       total electron number of element N = 10
                           occupied bands = 5
                                   NBANDS = 8
     initial pseudo atomic orbital number = 8
                                   NLOCAL = 18
 DONE : SETUP UNITCELL Time : 0.0173799991608 (SEC)





 >>>>>>>>>>>>>>>>>>>>>>>>>>>>>>>>>>>>>>>>>>>>>>>>>>>>>>>>>>>>>>>>>>>>>>
 |                                                                    |
 | Setup K-points                                                     |
 | We setup the k-points according to input parameters.               |
 | The reduced k-points are set according to symmetry operations.     |
 | We treat the spin as another set of k-points.                      |
 |                                                                    |
 <<<<<<<<<<<<<<<<<<<<<<<<<<<<<<<<<<<<<<<<<<<<<<<<<<<<<<<<<<<<<<<<<<<<<<





 SETUP K-POINTS
                                    nspin = 1
                   Input type of k points = Monkhorst-Pack(Gamma)
                                   nkstot = 1

  KPOINTS            DIRECT_X            DIRECT_Y            DIRECT_Z              WEIGHT
        1                   0                   0                   0                   1

           k-point number in this process = 1
       minimum distributed K point number = 1

  KPOINTS         CARTESIAN_X         CARTESIAN_Y         CARTESIAN_Z              WEIGHT
        1                   0                   0                   0                   2

  KPOINTS            DIRECT_X            DIRECT_Y            DIRECT_Z              WEIGHT
        1                   0                   0                   0                   2
 DONE : INIT K-POINTS Time : 0.0176351070404 (SEC)





 >>>>>>>>>>>>>>>>>>>>>>>>>>>>>>>>>>>>>>>>>>>>>>>>>>>>>>>>>>>>>>>>>>>>>>
 |                                                                    |
 | Setup plane waves:                                                 |
 | Use the energy cutoff and the lattice vectors to generate the      |
 | dimensions of FFT grid. The number of FFT grid on each processor   |
 | is 'nrxx'. The number of plane wave basis in reciprocal space is   |
 | different for charege/potential and wave functions. We also set    |
 | the 'sticks' for the parallel of FFT.                              |
 |                                                                    |
 <<<<<<<<<<<<<<<<<<<<<<<<<<<<<<<<<<<<<<<<<<<<<<<<<<<<<<<<<<<<<<<<<<<<<<





 SETUP THE PLANE WAVE BASIS
     energy cutoff for wavefunc (unit:Ry) = 50
            [fft grid for wave functions] = 96, 96, 96
          [fft grid for charge/potential] = 96, 96, 96
                      [fft grid division] = 1, 1, 1
      [big fft grid for charge/potential] = 96, 96, 96
                                     nbxx = 884736
                                     nrxx = 884736

 SETUP PLANE WAVES FOR CHARGE/POTENTIAL
                    number of plane waves = 382323
                         number of sticks = 6369

 SETUP PLANE WAVES FOR WAVE FUNCTIONS
                    number of plane waves = 47833
                         number of sticks = 1597

 PARALLEL PW FOR CHARGE/POTENTIAL
     PROC   COLUMNS(POT)             PW
        1           6369         382323
 --------------- sum -------------------
        1           6369         382323

 PARALLEL PW FOR WAVE FUNCTIONS
     PROC     COLUMNS(W)             PW
        1           1597          47833
 --------------- sum -------------------
        1           1597          47833

 SETUP COORDINATES OF PLANE WAVES
              number of total plane waves = 382323
                            number of |g| = 1691
                                  max |g| = 2026
                                  min |g| = 0
 DONE : INIT PLANEWAVE Time : 10.4133000374 (SEC)

                                     npwx = 47833

 SETUP NONLOCAL PSEUDOPOTENTIALS IN PLANE WAVE BASIS
 N non-local projectors:
 projector 1 L=1
      TOTAL NUMBER OF NONLOCAL PROJECTORS = 6
 DONE : LOCAL POTENTIAL Time : 10.4894440174 (SEC)


 Init Non-Local PseudoPotential table : 
 Init Non-Local-Pseudopotential done.
 DONE : NON-LOCAL POTENTIAL Time : 10.5043201447 (SEC)

                                start_pot = atomic
 DONE : INIT POTENTIAL Time : 10.8571 (SEC)


 Make real space PAO into reciprocal space.
       max mesh points in Pseudopotential = 967
     dq(describe PAO in reciprocal space) = 0.01
                                    max q = 712

 number of pseudo atomic orbitals for N is 2
 the unit of pseudo atomic orbital is 1, renormalize to 1
 the unit of pseudo atomic orbital is 1, renormalize to 1

 Make real space PAO into reciprocal space.
       max mesh points in Pseudopotential = 967
     dq(describe PAO in reciprocal space) = 0.01
                                    max q = 712

 number of pseudo atomic orbitals for N is 2
 the unit of pseudo atomic orbital is 1, renormalize to 1
 the unit of pseudo atomic orbital is 1, renormalize to 1
 DONE : INIT BASIS Time : 11.7252 (SEC)

 -------------------------------------------
 -------------------------------------------

 PW ALGORITHM --------------- ION=   1  ELEC=   1--------------------------------
  K-point    CG iter num      Time(Sec)
 Energy (eV) & Occupations  for spin=1 K-point=1
      1     -23.216305       1.250000
      2     -16.078807       1.250000
      3     -10.387766       1.250000
      4      -9.512703       1.250000
      5      -9.512703       1.250000
      6      -5.366885       1.250000
      7      -5.366885       1.250000
      8       0.282151       1.250000
        1       2.625000       2.630000
 Notice: Threshold on eigenvalues was too large.
 dr2=0.029923 < diago_error=0.100000
 Origin ETHR = 0.010000
 New    ETHR = 0.002992

 Density error is 0.029922960466
                          Error Threshold = 0.002992296047

       Energy                       Rydberg                            eV
   E_KohnSham              -39.355404337075             -535.457746078127
     E_Harris              -39.364396461823             -535.580090211827
       E_band              -10.099928030204             -137.416570600685
   E_one_elec              -69.563068892459             -946.454107303990
    E_Hartree              +35.555672460426             +483.759741683477
         E_xc               -8.905031744305             -121.159172593423
      E_Ewald               +3.561070893603              +48.450855134956
      E_demet               -0.000000000000               -0.000000000000
      E_descf               -0.004047054340               -0.055062999146
     E_efield               +0.000000000000               +0.000000000000
      E_Fermi               -0.621926325486               -8.461741762811

 PW ALGORITHM --------------- ION=   1  ELEC=   2--------------------------------
  K-point    CG iter num      Time(Sec)
 Energy (eV) & Occupations  for spin=1 K-point=1
      1     -23.394852       2.000000
      2     -15.973481       2.000000
      3     -10.055886       2.000000
      4      -9.677213       2.000000
      5      -9.677213       2.000000
      6      -5.528229       0.000000
      7      -5.528229       0.000000
      8       0.245575       0.000000
        1       3.250000       3.060000

 Density error is 0.004487025219
                          Error Threshold = 0.000299229605

       Energy                       Rydberg                            eV
   E_KohnSham              -39.356968880791             -535.479032787434
     E_Harris              -39.359014204901             -535.506860849599
       E_band              -10.110270726268             -137.557290199837
   E_one_elec              -69.942205264197             -951.612522278672
    E_Hartree              +35.738665416719             +486.249488582924
         E_xc               -8.938922100402             -121.620274543593
      E_Ewald               +3.561070893603              +48.450855134956
      E_demet               -0.000000000000               -0.000000000000
      E_descf               +0.224422173486               +3.053420316952
     E_efield               +0.000000000000               +0.000000000000
      E_Fermi               -0.628527575568               -8.551556377851

 PW ALGORITHM --------------- ION=   1  ELEC=   3--------------------------------
  K-point    CG iter num      Time(Sec)
 Energy (eV) & Occupations  for spin=1 K-point=1
      1     -23.088338       2.000000
      2     -15.767878       2.000000
      3      -9.860738       2.000000
      4      -9.439729       2.000000
      5      -9.439729       2.000000
      6      -5.290771       0.000000
      7      -5.290771       0.000000
      8       0.399828       0.000000
        1       3.000000       2.910000

 Density error is 0.000595876466
                          Error Threshold = 0.000044870252

       Energy                       Rydberg                            eV
   E_KohnSham              -39.357084017520             -535.480599303002
     E_Harris              -39.357407732730             -535.485003674387
       E_band               -9.936485657922             -135.192823043017
   E_one_elec              -69.820174388117             -949.952207032054
    E_Hartree              +35.825496545211             +487.430886694178
         E_xc               -8.956524843326             -121.859772147785
      E_Ewald               +3.561070893603              +48.450855134956
      E_demet               -0.000000000000               -0.000000000000
      E_descf               +0.033047775109               +0.449638047703
     E_efield               +0.000000000000               +0.000000000000
      E_Fermi               -0.612993584420               -8.340205585552

 PW ALGORITHM --------------- ION=   1  ELEC=   4--------------------------------
  K-point    CG iter num      Time(Sec)
 Energy (eV) & Occupations  for spin=1 K-point=1
      1     -22.952117       2.000000
      2     -15.665603       2.000000
      3      -9.769736       2.000000
      4      -9.327813       2.000000
      5      -9.327813       2.000000
      6      -5.172904       0.000000
      7      -5.172904       0.000000
      8       0.467121       0.000000
        1       3.375000       3.180000

 Density error is 0.000073211483
                          Error Threshold = 0.000005958765

       Energy                       Rydberg                            eV
   E_KohnSham              -39.357224322905             -535.482508255706
     E_Harris              -39.357258943837             -535.482979297640
       E_band               -9.855147642916             -134.086162574929
   E_one_elec              -69.728452841846             -948.704271373403
    E_Hartree              +35.794565911319             +487.010053830501
         E_xc               -8.950529218523             -121.778197487398
      E_Ewald               +3.561070893603              +48.450855134956
      E_demet               -0.000000000000               -0.000000000000
      E_descf               -0.033879067459               -0.460948360362
     E_efield               +0.000000000000               +0.000000000000
      E_Fermi               -0.606147869954               -8.247064861931

 PW ALGORITHM --------------- ION=   1  ELEC=   5--------------------------------
  K-point    CG iter num      Time(Sec)
 Energy (eV) & Occupations  for spin=1 K-point=1
      1     -22.998011       2.000000
      2     -15.703533       2.000000
      3      -9.810061       2.000000
      4      -9.364383       2.000000
      5      -9.364383       2.000000
      6      -5.210282       0.000000
      7      -5.210282       0.000000
      8       0.445348       0.000000
        1       3.125000       3.000000

 Density error is 0.000010178285
                          Error Threshold = 0.000000732115

       Energy                       Rydberg                            eV
   E_KohnSham              -39.357229518823             -535.482578949789
     E_Harris              -39.357234491688             -535.482646609094
       E_band               -9.884148545434             -134.480740096310
   E_one_elec              -69.750271024159             -949.001122972853
    E_Hartree              +35.787317558559             +486.911434931858
         E_xc               -8.949016907952             -121.757621446483
      E_Ewald               +3.561070893603              +48.450855134956
      E_demet               -0.000000000000               -0.000000000000
      E_descf               -0.006330038875               -0.086124597267
     E_efield               +0.000000000000               +0.000000000000
      E_Fermi               -0.608412975796               -8.277883207965

 PW ALGORITHM --------------- ION=   1  ELEC=   6--------------------------------
  K-point    CG iter num      Time(Sec)
 Energy (eV) & Occupations  for spin=1 K-point=1
      1     -23.005914       2.000000
      2     -15.714316       2.000000
      3      -9.823385       2.000000
      4      -9.371419       2.000000
      5      -9.371419       2.000000
      6      -5.217931       0.000000
      7      -5.217931       0.000000
      8      -0.199244       0.000000
        1       7.375000       6.130000

 Density error is 0.000061652519
                          Error Threshold = 0.000000101783

       Energy                       Rydberg                            eV
   E_KohnSham              -39.357226778955             -535.482541671979
     E_Harris              -39.357237841443             -535.482692184848
       E_band               -9.890922598903             -134.572905822047
   E_one_elec              -69.754336501833             -949.056436634321
    E_Hartree              +35.786537479135             +486.900821406791
         E_xc               -8.948871701121             -121.755645806197
      E_Ewald               +3.561070893603              +48.450855134956
      E_demet               -0.000000000000               -0.000000000001
      E_descf               -0.001626948739               -0.022135773207
     E_efield               +0.000000000000               +0.000000000000
      E_Fermi               -0.638241174669               -8.683716673706

 PW ALGORITHM --------------- ION=   1  ELEC=   7--------------------------------
  K-point    CG iter num      Time(Sec)
 Energy (eV) & Occupations  for spin=1 K-point=1
      1     -23.006986       2.000000
      2     -15.715325       2.000000
      3      -9.824633       2.000000
      4      -9.372231       2.000000
      5      -9.372231       2.000000
      6      -5.218765       0.000000
      7      -5.218765       0.000000
      8      -0.199017       0.000000
        1       2.000000       2.160000

 Density error is 0.000000346088
                          Error Threshold = 0.000000101783

       Energy                       Rydberg                            eV
   E_KohnSham              -39.357231603188             -535.482607309031
     E_Harris              -39.357231673997             -535.482608272435
       E_band               -9.891650625405             -134.582811130769
   E_one_elec              -69.754841418803             -949.063306382128
    E_Hartree              +35.785793122912             +486.890693920813
         E_xc               -8.948751697968             -121.754013079546
      E_Ewald               +3.561070893603              +48.450855134956
      E_demet               -0.000000000000               -0.000000000001
      E_descf               -0.000502502931               -0.006836903125
     E_efield               +0.000000000000               +0.000000000000
      E_Fermi               -0.638260292099               -8.683976779690

 PW ALGORITHM --------------- ION=   1  ELEC=   8--------------------------------
  K-point    CG iter num      Time(Sec)
 Energy (eV) & Occupations  for spin=1 K-point=1
      1     -23.008366       2.000000
      2     -15.716056       2.000000
      3      -9.825415       2.000000
      4      -9.373187       2.000000
      5      -9.373187       2.000000
      6      -5.219634       0.000000
      7      -5.219634       0.000000
      8      -0.198925       0.000000
        1       4.125000       3.750000

 Density error is 0.000000409369
                          Error Threshold = 0.000000003461

       Energy                       Rydberg                            eV
   E_KohnSham              -39.357231846147             -535.482610614655
     E_Harris              -39.357231903885             -535.482611400222
       E_band               -9.892357062942             -134.592422706555
   E_one_elec              -69.755634245178             -949.074093338350
    E_Hartree              +35.785493701562             +486.886620084353
         E_xc               -8.948719483357             -121.753574777276
      E_Ewald               +3.561070893603              +48.450855134956
      E_demet               -0.000000000000               -0.000000000001
      E_descf               +0.000557287224               +0.007582281663
     E_efield               +0.000000000000               +0.000000000000
      E_Fermi               -0.638294125522               -8.684437107022

 PW ALGORITHM --------------- ION=   1  ELEC=   9--------------------------------
  K-point    CG iter num      Time(Sec)
 Energy (eV) & Occupations  for spin=1 K-point=1
      1     -23.009096       2.000000
      2     -15.716234       2.000000
      3      -9.825616       2.000000
      4      -9.373616       2.000000
      5      -9.373616       2.000000
      6      -5.219957       0.000000
      7      -5.219957       0.000000
      8      -0.198797       0.000000
        1       2.000000       2.150000

 Density error is 0.000000098035
                          Error Threshold = 0.000000003461

       Energy                       Rydberg                            eV
   E_KohnSham              -39.357231779544             -535.482609708478
     E_Harris              -39.357231860352             -535.482610807933
       E_band               -9.892646229303             -134.596357016732
   E_one_elec              -69.755834399217             -949.076816573758
    E_Hartree              +35.786490373076             +486.900180495978
         E_xc               -8.948958647006             -121.756828765652
      E_Ewald               +3.561070893603              +48.450855134956
      E_demet               -0.000000000000               -0.000000000001
      E_descf               +0.000000000000               +0.000000000000
     E_efield               +0.000000000000               +0.000000000000
      E_Fermi               -0.638308369449               -8.684630905600
 convergence is achieved
 !FINAL_ETOT_IS -535.482609708478 eV

 STATE ENERGY(eV) AND OCCUPATIONS. 1/1 kpoint (Cartesian) = 0.00000 0.00000 0.00000 (47833 pws)
 [spin1_state]        1     -23.009096       2.000000
 [spin1_state]        2     -15.716234       2.000000
 [spin1_state]        3      -9.825616       2.000000
 [spin1_state]        4      -9.373616       2.000000
 [spin1_state]        5      -9.373616       2.000000
 [spin1_state]        6      -5.219957       0.000000
 [spin1_state]        7      -5.219957       0.000000
 [spin1_state]        8      -0.198797       0.000000



 ><><><><><><><><><><><><><><><><><><><><><><

    TOTAL-FORCE (Ry/Bohr)

 ><><><><><><><><><><><><><><><><><><><><><><

     atom              x              y              z
       N1              0              0      +0.611844
       N2              0              0      -0.611844


 ><><><><><><><><><><><><><><><><><><><><><><

    TOTAL-FORCE (eV/Angstrom)

 ><><><><><><><><><><><><><><><><><><><><><><

     atom              x              y              z
       N1              0              0     +15.731155
       N2              0              0     -15.731155
 largest force is 0, no movement is possible.
 it may converged, otherwise no movement of atom is allowed.
 end of geometry optimization
                                    istep = 1
                         update iteration = 0

 CARTESIAN COORDINATES ( UNIT = 20.000000 Bohr ).
         atom                   x                   y                   z mag
      tauc_N1      0.000000000000      0.000000000000      0.000000000000 0.000000000000
      tauc_N2      0.000000000000      0.000000000000      0.141729515834 0.000000000000

 DIRECT COORDINATES
         atom                   x                   y                   z mag
      taud_N1      0.000000000000      0.000000000000      0.000000000000 0.000000000000
      taud_N2      0.000000000000      0.000000000000      0.141729515834 0.000000000000


 ><><><><><><><><><><><><><><><><><><><><><><

 Overlap Data For Spillage Minimization

 ><><><><><><><><><><><><><><><><><><><><><><

 File name : INPUTs
                                   smooth = 1
                                    sigma = 0.100000000000
                                     ecut = 50.000000000000
                                     rcut = 6.000000000000
                                tolerence = 0.000000000001
                                    kmesh = 713
                                       dk = 0.010000000000
                                    rmesh = 605
                                       dr = 0.010000000000
                       number of k points = 1
                          number of bands = 8
                 number of local orbitals = 18
           number of eigenvalues of Jl(x) = 13
 --------------------------------------------------------
 Print the overlap matrixs Q and S for this kpoint
       ik     npw
        1   47833
 --------------------------------------------------------
 OUTPUT THE OVERLAP BETWEEN SPHERICAL BESSEL FUNCTIONS AND BLOCH WAVE FUNCTIONS
 Q = < J_mu, q | Psi_n, k > 

    ik   Type1   Atom1       L
     1       N       1       0
     1       N       1       1
     1       N       1       2
     1       N       2       0
     1       N       2       1
     1       N       2       2
 DONE : jlq3d_overlap Time : 50.166846036911 (SEC)

 OUTPUT THE OVERLAP BETWEEN SPHERICAL BESSEL FUNCTIONS
 S = < J_mu,q1 | J_nu,q2 >

    ik   Type1   Atom1      L1   Type2   Atom2      L2
     1       N       1       0       N       1       0
     1       N       1       0       N       1       1
     1       N       1       0       N       1       2
     1       N       1       1       N       1       0
     1       N       1       1       N       1       1
     1       N       1       1       N       1       2
     1       N       1       2       N       1       0
     1       N       1       2       N       1       1
     1       N       1       2       N       1       2
     1       N       1       0       N       2       0
     1       N       1       0       N       2       1
     1       N       1       0       N       2       2
     1       N       1       1       N       2       0
     1       N       1       1       N       2       1
     1       N       1       1       N       2       2
     1       N       1       2       N       2       0
     1       N       1       2       N       2       1
     1       N       1       2       N       2       2
     1       N       2       0       N       1       0
     1       N       2       0       N       1       1
     1       N       2       0       N       1       2
     1       N       2       1       N       1       0
     1       N       2       1       N       1       1
     1       N       2       1       N       1       2
     1       N       2       2       N       1       0
     1       N       2       2       N       1       1
     1       N       2       2       N       1       2
     1       N       2       0       N       2       0
     1       N       2       0       N       2       1
     1       N       2       0       N       2       2
     1       N       2       1       N       2       0
     1       N       2       1       N       2       1
     1       N       2       1       N       2       2
     1       N       2       2       N       2       0
     1       N       2       2       N       2       1
     1       N       2       2       N       2       2
 DONE : Sq_overlap Time : 88.493443012238 (SEC)


 ik=0 DONE : BASIS OVERLAP (Q and S) GENERATION. Time : 88.565746068954 (SEC)





 >>>>>>>>>>>>>>>>>>>>>>>>>>>>>>>>>>>>>>>>>>>>>>>>>>>>>>>>>>>>>>>>>>>>>>
 |                                                                    |
 | Post-processing of data:                                           |
 | DOS (density of states) and bands will be output here.             |
 | If atomic orbitals are used, Mulliken charge analysis can be done. |
 | Also the .bxsf file containing fermi surface information can be    |
 | done here.                                                         |
 |                                                                    |
 <<<<<<<<<<<<<<<<<<<<<<<<<<<<<<<<<<<<<<<<<<<<<<<<<<<<<<<<<<<<<<<<<<<<<<








  |CLASS_NAME---------|NAME---------------|TIME(Sec)-----|CALLS----|AVG------|PER%-------
  A             DC_Driv         divide_frag         10.396         1     10.40     11.74%
  B            PW_Basis              gen_pw          10.40         1     10.40     11.74%
  A             DC_Driv         solve_eachf          78.15         1     78.15     88.24%
  B            Run_Frag        frag_pw_line          78.15         1     78.15     88.24%
  E           potential            v_of_rho           1.74        10      0.17      1.96%
  C            wavefunc             wfcinit           0.83         1      0.83      0.94%
  G           Hamilt_PW            cinitcgg           7.25        10      0.73      8.19%
  H           Hamilt_PW               h_psi          28.22       327      0.09     31.86%
  I           Hamilt_PW          add_vuspsi           0.30       327      0.00      0.33%
  C                Ions         opt_ions_pw          37.09         1     37.09     41.88%
  D           electrons     self_consistent          36.62         1     36.62     41.35%
  E           electrons             c_bands          29.19         9      3.24     32.95%
  F              Hamilt               diago          29.03         9      3.23     32.77%
  G            Diago_CG                diag          22.52         9      2.50     25.43%
  E              Charge             mix_rho           1.78         9      0.20      2.01%
 ----------------------------------------------------------------------------------------

 CLASS_NAME---------|NAME---------------|MEMORY(MB)--------
                                         243.7392
         Charge_Pulay                Rrho        54.0000
         Charge_Pulay               dRrho        47.2500
         Charge_Pulay                drho        47.2500
              Use_FFT              porter        13.5000
               Charge                 rho         6.7500
               Charge            rho_save         6.7500
               Charge            rho_core         6.7500
            potential               vltot         6.7500
            potential                  vr         6.7500
            potential                 vrs         6.7500
            potential                vrs1         6.7500
            potential                vnew         6.7500
         Charge_Pulay           rho_save2         6.7500
             wavefunc                 evc         5.8390
             PW_Basis           struc_fac         5.8338
               Charge                rhog         2.9169
               Charge           rhog_save         2.9169
               Charge           rhog_core         2.9169
 ----------------------------------------------------------

 Start  Time  : Wed Sep 30 16:31:25 2015
 Finish Time  : Wed Sep 30 16:32:53 2015
 Total  Time  : 0 h 1 mins 28 secs 
