<PP_INFO>
Generated using Fritz-Haber code                                                
Author: unknown    Generation date: as well                                     
zinc, fhi98PP : Trouiller-Martins-type, GGA Perdew/Burke/Ernzerhof (1996), l= 0 
    1        The Pseudo was generated with a Scalar-Relativistic Calculation
nl pn  l   occ               Rcut            Rcut US             E pseu
4s  0  0  2.00      0.00000000000      0.00000000000      0.00000000000
4p  0  1  0.00      0.00000000000      0.00000000000      0.00000000000
3d  0  2 10.00      0.00000000000      0.00000000000      0.00000000000
4f  0  3  0.00      0.00000000000      0.00000000000      0.00000000000
</PP_INFO>


<PP_HEADER>
   0                   Version Number
  Zn                   Element
   NC                  Norm - Conserving pseudopotential
    F                  Nonlinear Core Correction
SLA  PW   PBE  PBE     PBE  Exchange-Correlation functional
   12.00000000000      Z valence
    0.00000000000      Total energy
  0.0000000  0.0000000 Suggested cutoff for wfc and rho
    3                  Max angular momentum component
  527                  Number of points in mesh
    4    3             Number of Wavefunctions, Number of Projectors
 Wavefunctions         nl  l   occ
                       4s  0  2.00
                       4p  1  0.00
                       3d  2 10.00
                       4f  3  0.00
</PP_HEADER>


<PP_MESH>
  <PP_R>
  2.08333333333E-04  2.13479166667E-04  2.18752102083E-04  2.24155279005E-04
  2.29691914396E-04  2.35365304682E-04  2.41178827707E-04  2.47135944752E-04
  2.53240202587E-04  2.59495235591E-04  2.65904767910E-04  2.72472615678E-04
  2.79202689285E-04  2.86098995710E-04  2.93165640904E-04  3.00406832235E-04
  3.07826880991E-04  3.15430204951E-04  3.23221331013E-04  3.31204897889E-04
  3.39385658867E-04  3.47768484641E-04  3.56358366212E-04  3.65160417857E-04
  3.74179880179E-04  3.83422123219E-04  3.92892649662E-04  4.02597098109E-04
  4.12541246432E-04  4.22731015219E-04  4.33172471295E-04  4.43871831336E-04
  4.54835465570E-04  4.66069901570E-04  4.77581828139E-04  4.89378099294E-04
  5.01465738346E-04  5.13851942083E-04  5.26544085053E-04  5.39549723954E-04
  5.52876602135E-04  5.66532654208E-04  5.80526010767E-04  5.94865003233E-04
  6.09558168813E-04  6.24614255582E-04  6.40042227695E-04  6.55851270719E-04
  6.72050797106E-04  6.88650451795E-04  7.05660117954E-04  7.23089922867E-04
  7.40950243962E-04  7.59251714988E-04  7.78005232348E-04  7.97221961587E-04
  8.16913344039E-04  8.37091103636E-04  8.57767253896E-04  8.78954105067E-04
  9.00664271462E-04  9.22910678968E-04  9.45706572738E-04  9.69065525085E-04
  9.93001443554E-04  1.01752857921E-03  1.04266153512E-03  1.06841527503E-03
  1.09480513233E-03  1.12184681910E-03  1.14955643553E-03  1.17795047949E-03
  1.20704585633E-03  1.23685988898E-03  1.26741032824E-03  1.29871536334E-03
  1.33079363282E-03  1.36366423555E-03  1.39734674217E-03  1.43186120670E-03
  1.46722817851E-03  1.50346871451E-03  1.54060439176E-03  1.57865732024E-03
  1.61765015605E-03  1.65760611490E-03  1.69854898594E-03  1.74050314589E-03
  1.78349357360E-03  1.82754586487E-03  1.87268624773E-03  1.91894159805E-03
  1.96633945552E-03  2.01490804007E-03  2.06467626866E-03  2.11567377250E-03
  2.16793091468E-03  2.22147880827E-03  2.27634933483E-03  2.33257516340E-03
  2.39018976994E-03  2.44922745726E-03  2.50972337545E-03  2.57171354283E-03
  2.63523486733E-03  2.70032516856E-03  2.76702320022E-03  2.83536867326E-03
  2.90540227949E-03  2.97716571580E-03  3.05070170898E-03  3.12605404119E-03
  3.20326757601E-03  3.28238828513E-03  3.36346327578E-03  3.44654081869E-03
  3.53167037691E-03  3.61890263522E-03  3.70828953031E-03  3.79988428171E-03
  3.89374142347E-03  3.98991683663E-03  4.08846778249E-03  4.18945293672E-03
  4.29293242426E-03  4.39896785514E-03  4.50762236116E-03  4.61896063348E-03
  4.73304896112E-03  4.84995527046E-03  4.96974916564E-03  5.09250197004E-03
  5.21828676870E-03  5.34717845188E-03  5.47925375964E-03  5.61459132751E-03
  5.75327173330E-03  5.89537754511E-03  6.04099337047E-03  6.19020590672E-03
  6.34310399262E-03  6.49977866124E-03  6.66032319417E-03  6.82483317707E-03
  6.99340655654E-03  7.16614369849E-03  7.34314744784E-03  7.52452318980E-03
  7.71037891259E-03  7.90082527173E-03  8.09597565594E-03  8.29594625464E-03
  8.50085612713E-03  8.71082727347E-03  8.92598470713E-03  9.14645652939E-03
  9.37237400567E-03  9.60387164361E-03  9.84108727321E-03  1.00841621289E-02
  1.03332409334E-02  1.05884719845E-02  1.08500072425E-02  1.11180024214E-02
  1.13926170812E-02  1.16740147231E-02  1.19623628868E-02  1.22578332501E-02
  1.25606017314E-02  1.28708485941E-02  1.31887585544E-02  1.35145208907E-02
  1.38483295567E-02  1.41903832967E-02  1.45408857642E-02  1.49000456425E-02
  1.52680767699E-02  1.56451982661E-02  1.60316346633E-02  1.64276160395E-02
  1.68333781557E-02  1.72491625961E-02  1.76752169122E-02  1.81117947700E-02
  1.85591561008E-02  1.90175672565E-02  1.94873011677E-02  1.99686375066E-02
  2.04618628530E-02  2.09672708654E-02  2.14851624558E-02  2.20158459685E-02
  2.25596373639E-02  2.31168604068E-02  2.36878468588E-02  2.42729366762E-02
  2.48724782121E-02  2.54868284240E-02  2.61163530861E-02  2.67614270073E-02
  2.74224342544E-02  2.80997683804E-02  2.87938326594E-02  2.95050403261E-02
  3.02338148222E-02  3.09805900483E-02  3.17458106225E-02  3.25299321449E-02
  3.33334214688E-02  3.41567569791E-02  3.50004288765E-02  3.58649394697E-02
  3.67508034746E-02  3.76585483205E-02  3.85887144640E-02  3.95418557112E-02
  4.05185395473E-02  4.15193474741E-02  4.25448753567E-02  4.35957337781E-02
  4.46725484024E-02  4.57759603479E-02  4.69066265685E-02  4.80652202448E-02
  4.92524311848E-02  5.04689662351E-02  5.17155497011E-02  5.29929237787E-02
  5.43018489960E-02  5.56431046662E-02  5.70174893515E-02  5.84258213385E-02
  5.98689391255E-02  6.13477019219E-02  6.28629901594E-02  6.44157060163E-02
  6.60067739549E-02  6.76371412716E-02  6.93077786610E-02  7.10196807939E-02
  7.27738669096E-02  7.45713814222E-02  7.64132945434E-02  7.83007029186E-02
  8.02347302807E-02  8.22165281186E-02  8.42472763631E-02  8.63281840893E-02
  8.84604902363E-02  9.06454643451E-02  9.28844073145E-02  9.51786521751E-02
  9.75295648839E-02  9.99385451365E-02  1.02407027201E-01  1.04936480773E-01
  1.07528411848E-01  1.10184363621E-01  1.12905917402E-01  1.15694693562E-01
  1.18552352493E-01  1.21480595600E-01  1.24481166311E-01  1.27555851119E-01
  1.30706480642E-01  1.33934930714E-01  1.37243123502E-01  1.40633028653E-01
  1.44106664460E-01  1.47666099073E-01  1.51313451720E-01  1.55050893977E-01
  1.58880651058E-01  1.62805003139E-01  1.66826286717E-01  1.70946895999E-01
  1.75169284330E-01  1.79495965653E-01  1.83929516005E-01  1.88472575050E-01
  1.93127847654E-01  1.97898105491E-01  2.02786188696E-01  2.07795007557E-01
  2.12927544244E-01  2.18186854587E-01  2.23576069895E-01  2.29098398821E-01
  2.34757129272E-01  2.40555630365E-01  2.46497354435E-01  2.52585839090E-01
  2.58824709315E-01  2.65217679636E-01  2.71768556323E-01  2.78481239664E-01
  2.85359726283E-01  2.92408111523E-01  2.99630591877E-01  3.07031467497E-01
  3.14615144744E-01  3.22386138819E-01  3.30349076448E-01  3.38508698636E-01
  3.46869863492E-01  3.55437549121E-01  3.64216856584E-01  3.73213012941E-01
  3.82431374361E-01  3.91877429308E-01  4.01556801812E-01  4.11475254816E-01
  4.21638693610E-01  4.32053169343E-01  4.42724882625E-01  4.53660187226E-01
  4.64865593851E-01  4.76347774019E-01  4.88113564037E-01  5.00169969069E-01
  5.12524167305E-01  5.25183514237E-01  5.38155547039E-01  5.51447989051E-01
  5.65068754380E-01  5.79025952613E-01  5.93327893643E-01  6.07983092616E-01
  6.23000275004E-01  6.38388381796E-01  6.54156574827E-01  6.70314242225E-01
  6.86871004008E-01  7.03836717807E-01  7.21221484737E-01  7.39035655410E-01
  7.57289836098E-01  7.75994895050E-01  7.95161968958E-01  8.14802469591E-01
  8.34928090590E-01  8.55550814427E-01  8.76682919544E-01  8.98336987656E-01
  9.20525911251E-01  9.43262901259E-01  9.66561494920E-01  9.90435563845E-01
  1.01489932227E+00  1.03996733553E+00  1.06565452872E+00  1.09197619558E+00
  1.11894800761E+00  1.14658602340E+00  1.17490669818E+00  1.20392689362E+00
  1.23366388789E+00  1.26413538592E+00  1.29535952996E+00  1.32735491035E+00
  1.36014057663E+00  1.39373604887E+00  1.42816132928E+00  1.46343691412E+00
  1.49958380589E+00  1.53662352590E+00  1.57457812699E+00  1.61347020673E+00
  1.65332292083E+00  1.69415999698E+00  1.73600574890E+00  1.77888509090E+00
  1.82282355264E+00  1.86784729440E+00  1.91398312257E+00  1.96125850569E+00
  2.00970159078E+00  2.05934122008E+00  2.11020694821E+00  2.16232905983E+00
  2.21573858761E+00  2.27046733073E+00  2.32654787379E+00  2.38401360628E+00
  2.44289874235E+00  2.50323834129E+00  2.56506832832E+00  2.62842551603E+00
  2.69334762627E+00  2.75987331264E+00  2.82804218346E+00  2.89789482540E+00
  2.96947282758E+00  3.04281880643E+00  3.11797643094E+00  3.19499044879E+00
  3.27390671287E+00  3.35477220868E+00  3.43763508224E+00  3.52254466877E+00
  3.60955152209E+00  3.69870744468E+00  3.79006551856E+00  3.88368013687E+00
  3.97960703625E+00  4.07790333005E+00  4.17862754230E+00  4.28183964260E+00
  4.38760108177E+00  4.49597482849E+00  4.60702540675E+00  4.72081893430E+00
  4.83742316198E+00  4.95690751408E+00  5.07934312967E+00  5.20480290498E+00
  5.33336153673E+00  5.46509556669E+00  5.60008342718E+00  5.73840548784E+00
  5.88014410339E+00  6.02538366274E+00  6.17421063921E+00  6.32671364200E+00
  6.48298346895E+00  6.64311316064E+00  6.80719805571E+00  6.97533584768E+00
  7.14762664312E+00  7.32417302120E+00  7.50508009483E+00  7.69045557317E+00
  7.88040982583E+00  8.07505594853E+00  8.27450983045E+00  8.47889022327E+00
  8.68831881178E+00  8.90292028643E+00  9.12282241751E+00  9.34815613122E+00
  9.57905558766E+00  9.81565826068E+00  1.00581050197E+01  1.03065402137E+01
  1.05611117570E+01  1.08219712174E+01  1.10892739064E+01  1.13631789719E+01
  1.16438494925E+01  1.19314525750E+01  1.22261594536E+01  1.25281455921E+01
  1.28375907882E+01  1.31546792807E+01  1.34795998589E+01  1.38125459755E+01
  1.41537158611E+01  1.45033126428E+01  1.48615444651E+01  1.52286246134E+01
  1.56047716413E+01  1.59902095009E+01  1.63851676756E+01  1.67898813171E+01
  1.72045913857E+01  1.76295447929E+01  1.80649945493E+01  1.85111999146E+01
  1.89684265525E+01  1.94369466884E+01  1.99170392716E+01  2.04089901416E+01
  2.09130921981E+01  2.14296455754E+01  2.19589578211E+01  2.25013440793E+01
  2.30571272780E+01  2.36266383218E+01  2.42102162884E+01  2.48082086307E+01
  2.54209713839E+01  2.60488693770E+01  2.66922764507E+01  2.73515756790E+01
  2.80271595983E+01  2.87194304403E+01  2.94288003722E+01  3.01556917414E+01
  3.09005373274E+01  3.16637805994E+01  3.24458759802E+01  3.32472891169E+01
  3.40684971581E+01  3.49099890379E+01  3.57722657671E+01  3.66558407316E+01
  3.75612399977E+01  3.84890026256E+01  3.94396809905E+01  4.04138411109E+01
  4.14120629864E+01  4.24349409421E+01  4.34830839834E+01  4.45571161578E+01
  4.56576769269E+01  4.67854215470E+01  4.79410214592E+01  4.91251646892E+01
  5.03385562571E+01  5.15819185966E+01  5.28559919859E+01  5.41615349880E+01
  5.54993249022E+01  5.68701582273E+01  5.82748511355E+01  5.97142399585E+01
  6.11891816855E+01  6.27005544731E+01  6.42492581686E+01  6.58362148454E+01
  6.74623693521E+01  6.91286898751E+01  7.08361685150E+01  7.25858218773E+01
  7.43786916777E+01  7.62158453621E+01  7.80983767426E+01
  </PP_R>
  <PP_RAB>
  5.08330975490E-06  5.20886750585E-06  5.33752653324E-06  5.46936343861E-06
  5.60445671555E-06  5.74288679642E-06  5.88473610029E-06  6.03008908197E-06
  6.17903228230E-06  6.33165437967E-06  6.48804624285E-06  6.64830098505E-06
  6.81251401938E-06  6.98078311565E-06  7.15320845861E-06  7.32989270754E-06
  7.51094105741E-06  7.69646130153E-06  7.88656389568E-06  8.08136202390E-06
  8.28097166589E-06  8.48551166604E-06  8.69510380419E-06  8.90987286816E-06
  9.12994672800E-06  9.35545641218E-06  9.58653618556E-06  9.82332362935E-06
  1.00659597230E-05  1.03145889281E-05  1.05693592747E-05  1.08304224488E-05
  1.10979338832E-05  1.13720528502E-05  1.16529425556E-05  1.19407702367E-05
  1.22357072615E-05  1.25379292309E-05  1.28476160829E-05  1.31649522001E-05
  1.34901265195E-05  1.38233326445E-05  1.41647689608E-05  1.45146387542E-05
  1.48731503314E-05  1.52405171446E-05  1.56169579180E-05  1.60026967786E-05
  1.63979633891E-05  1.68029930848E-05  1.72180270140E-05  1.76433122812E-05
  1.80791020945E-05  1.85256559163E-05  1.89832396174E-05  1.94521256360E-05
  1.99325931392E-05  2.04249281897E-05  2.09294239160E-05  2.14463806867E-05
  2.19761062897E-05  2.25189161150E-05  2.30751333431E-05  2.36450891367E-05
  2.42291228383E-05  2.48275821724E-05  2.54408234521E-05  2.60692117914E-05
  2.67131213226E-05  2.73729354193E-05  2.80490469241E-05  2.87418583832E-05
  2.94517822852E-05  3.01792413077E-05  3.09246685680E-05  3.16885078816E-05
  3.24712140263E-05  3.32732530127E-05  3.40951023621E-05  3.49372513905E-05
  3.58002014998E-05  3.66844664769E-05  3.75905727989E-05  3.85190599470E-05
  3.94704807277E-05  4.04454016017E-05  4.14444030212E-05  4.24680797758E-05
  4.35170413463E-05  4.45919122676E-05  4.56933325006E-05  4.68219578133E-05
  4.79784601713E-05  4.91635281375E-05  5.03778672825E-05  5.16222006044E-05
  5.28972689593E-05  5.42038315026E-05  5.55426661408E-05  5.69145699944E-05
  5.83203598733E-05  5.97608727622E-05  6.12369663194E-05  6.27495193875E-05
  6.42994325164E-05  6.58876284995E-05  6.75150529234E-05  6.91826747307E-05
  7.08914867965E-05  7.26425065204E-05  7.44367764314E-05  7.62753648093E-05
  7.81593663201E-05  8.00899026682E-05  8.20681232641E-05  8.40952059087E-05
  8.61723574947E-05  8.83008147248E-05  9.04818448485E-05  9.27167464162E-05
  9.50068500527E-05  9.73535192490E-05  9.97581511745E-05  1.02222177508E-04
  1.04747065293E-04  1.07334317806E-04  1.09985475455E-04  1.12702116699E-04
  1.15485858982E-04  1.18338359699E-04  1.21261317183E-04  1.24256471718E-04
  1.27325606569E-04  1.30470549051E-04  1.33693171613E-04  1.36995392952E-04
  1.40379179157E-04  1.43846544883E-04  1.47399554541E-04  1.51040323538E-04
  1.54771019530E-04  1.58593863712E-04  1.62511132146E-04  1.66525157110E-04
  1.70638328491E-04  1.74853095204E-04  1.79171966656E-04  1.83597514232E-04
  1.88132372834E-04  1.92779242443E-04  1.97540889731E-04  2.02420149707E-04
  2.07419927405E-04  2.12543199612E-04  2.17793016643E-04  2.23172504154E-04
  2.28684865006E-04  2.34333381172E-04  2.40121415687E-04  2.46052414654E-04
  2.52129909296E-04  2.58357518056E-04  2.64738948752E-04  2.71278000786E-04
  2.77978567405E-04  2.84844638020E-04  2.91880300579E-04  2.99089744004E-04
  3.06477260681E-04  3.14047249019E-04  3.21804216070E-04  3.29752780207E-04
  3.37897673878E-04  3.46243746423E-04  3.54795966960E-04  3.63559427344E-04
  3.72539345199E-04  3.81741067025E-04  3.91170071381E-04  4.00831972144E-04
  4.10732521856E-04  4.20877615146E-04  4.31273292240E-04  4.41925742558E-04
  4.52841308399E-04  4.64026488717E-04  4.75487942988E-04  4.87232495180E-04
  4.99267137811E-04  5.11599036115E-04  5.24235532307E-04  5.37184149955E-04
  5.50452598459E-04  5.64048777641E-04  5.77980782449E-04  5.92256907775E-04
  6.06885653397E-04  6.21875729036E-04  6.37236059543E-04  6.52975790214E-04
  6.69104292232E-04  6.85631168250E-04  7.02566258106E-04  7.19919644681E-04
  7.37701659905E-04  7.55922890905E-04  7.74594186310E-04  7.93726662712E-04
  8.13331711281E-04  8.33421004549E-04  8.54006503362E-04  8.75100463995E-04
  8.96715445455E-04  9.18864316958E-04  9.41560265587E-04  9.64816804147E-04
  9.88647779209E-04  1.01306737936E-03  1.03809014363E-03  1.06373097017E-03
  1.09000512514E-03  1.11692825173E-03  1.14451637955E-03  1.17278593412E-03
  1.20175374669E-03  1.23143706424E-03  1.26185355972E-03  1.29302134265E-03
  1.32495896981E-03  1.35768545637E-03  1.39122028714E-03  1.42558342823E-03
  1.46079533891E-03  1.49687698378E-03  1.53384984528E-03  1.57173593646E-03
  1.61055781409E-03  1.65033859209E-03  1.69110195532E-03  1.73287217362E-03
  1.77567411630E-03  1.81953326698E-03  1.86447573867E-03  1.91052828942E-03
  1.95771833817E-03  2.00607398112E-03  2.05562400845E-03  2.10639792146E-03
  2.15842595012E-03  2.21173907109E-03  2.26636902614E-03  2.32234834109E-03
  2.37971034511E-03  2.43848919064E-03  2.49871987365E-03  2.56043825453E-03
  2.62368107941E-03  2.68848600208E-03  2.75489160633E-03  2.82293742900E-03
  2.89266398350E-03  2.96411278389E-03  3.03732636965E-03  3.11234833098E-03
  3.18922333476E-03  3.26799715113E-03  3.34871668076E-03  3.43142998278E-03
  3.51618630335E-03  3.60303610504E-03  3.69203109684E-03  3.78322426493E-03
  3.87666990427E-03  3.97242365091E-03  4.07054251509E-03  4.17108491521E-03
  4.27411071261E-03  4.37968124722E-03  4.48785937402E-03  4.59870950056E-03
  4.71229762522E-03  4.82869137657E-03  4.94796005357E-03  5.07017466689E-03
  5.19540798116E-03  5.32373455830E-03  5.45523080189E-03  5.58997500270E-03
  5.72804738526E-03  5.86953015568E-03  6.01450755052E-03  6.16306588702E-03
  6.31529361443E-03  6.47128136671E-03  6.63112201646E-03  6.79491073027E-03
  6.96274502531E-03  7.13472482743E-03  7.31095253067E-03  7.49153305818E-03
  7.67657392472E-03  7.86618530066E-03  8.06048007758E-03  8.25957393550E-03
  8.46358541171E-03  8.67263597138E-03  8.88685007987E-03  9.10635527684E-03
  9.33128225218E-03  9.56176492381E-03  9.79794051743E-03  1.00399496482E-02
  1.02879364045E-02  1.05420484337E-02  1.08024370300E-02  1.10692572247E-02
  1.13426678781E-02  1.16228317747E-02  1.19099157195E-02  1.22040906378E-02
  1.25055316766E-02  1.28144183090E-02  1.31309344412E-02  1.34552685219E-02
  1.37876136544E-02  1.41281677117E-02  1.44771334541E-02  1.48347186505E-02
  1.52011362011E-02  1.55766042653E-02  1.59613463906E-02  1.63555916465E-02
  1.67595747602E-02  1.71735362567E-02  1.75977226023E-02  1.80323863506E-02
  1.84777862934E-02  1.89341876149E-02  1.94018620489E-02  1.98810880416E-02
  2.03721509162E-02  2.08753430438E-02  2.13909640170E-02  2.19193208282E-02
  2.24607280527E-02  2.30155080356E-02  2.35839910840E-02  2.41665156638E-02
  2.47634286007E-02  2.53750852872E-02  2.60018498937E-02  2.66440955861E-02
  2.73022047471E-02  2.79765692044E-02  2.86675904637E-02  2.93756799482E-02
  3.01012592429E-02  3.08447603462E-02  3.16066259267E-02  3.23873095871E-02
  3.31872761339E-02  3.40070018544E-02  3.48469748002E-02  3.57076950778E-02
  3.65896751462E-02  3.74934401223E-02  3.84195280933E-02  3.93684904373E-02
  4.03408921511E-02  4.13373121872E-02  4.23583437982E-02  4.34045948900E-02
  4.44766883838E-02  4.55752625869E-02  4.67009715728E-02  4.78544855706E-02
  4.90364913642E-02  5.02476927009E-02  5.14888107106E-02  5.27605843352E-02
  5.40637707683E-02  5.53991459062E-02  5.67675048101E-02  5.81696621789E-02
  5.96064528348E-02  6.10787322198E-02  6.25873769056E-02  6.41332851152E-02
  6.57173772575E-02  6.73405964758E-02  6.90039092087E-02  7.07083057662E-02
  7.24548009186E-02  7.42444345013E-02  7.60782720335E-02  7.79574053527E-02
  7.98829532649E-02  8.18560622106E-02  8.38779069472E-02  8.59496912488E-02
  8.80726486226E-02  9.02480430436E-02  9.24771697068E-02  9.47613557985E-02
  9.71019612867E-02  9.95003797305E-02  1.01958039110E-01  1.04476402676E-01
  1.07056969822E-01  1.09701276977E-01  1.12410898518E-01  1.15187447711E-01
  1.18032577670E-01  1.20947982338E-01  1.23935397502E-01  1.26996601820E-01
  1.30133417885E-01  1.33347713307E-01  1.36641401826E-01  1.40016444451E-01
  1.43474850629E-01  1.47018679439E-01  1.50650040821E-01  1.54371096830E-01
  1.58184062921E-01  1.62091209276E-01  1.66094862145E-01  1.70197405240E-01
  1.74401281149E-01  1.78708992793E-01  1.83123104915E-01  1.87646245607E-01
  1.92281107873E-01  1.97030451238E-01  2.01897103383E-01  2.06883961837E-01
  2.11993995694E-01  2.17230247388E-01  2.22595834498E-01  2.28093951610E-01
  2.33727872215E-01  2.39500950659E-01  2.45416624140E-01  2.51478414757E-01
  2.57689931601E-01  2.64054872912E-01  2.70577028272E-01  2.77260280871E-01
  2.84108609808E-01  2.91126092471E-01  2.98316906955E-01  3.05685334556E-01
  3.13235762320E-01  3.20972685649E-01  3.28900710985E-01  3.37024558546E-01
  3.45349065142E-01  3.53879187051E-01  3.62620002971E-01  3.71576717045E-01
  3.80754661956E-01  3.90159302106E-01  3.99796236868E-01  4.09671203919E-01
  4.19790082656E-01  4.30158897697E-01  4.40783822470E-01  4.51671182885E-01
  4.62827461103E-01  4.74259299392E-01  4.85973504087E-01  4.97977049638E-01
  5.10277082764E-01  5.22880926708E-01  5.35796085598E-01  5.49030248912E-01
  5.62591296060E-01  5.76487301073E-01  5.90726537409E-01  6.05317482883E-01
  6.20268824710E-01  6.35589464681E-01  6.51288524458E-01  6.67375351013E-01
  6.83859522183E-01  7.00750852380E-01  7.18059398434E-01  7.35795465576E-01
  7.53969613575E-01  7.72592663031E-01  7.91675701807E-01  8.11230091642E-01
  8.31267474906E-01  8.51799781536E-01  8.72839236140E-01  8.94398365272E-01
  9.16490004895E-01  9.39127308016E-01  9.62323752524E-01  9.86093149211E-01
  1.01044965000E+00  1.03540775635E+00  1.06098232793E+00  1.08718859143E+00
  1.11404214964E+00  1.14155899074E+00  1.16975549781E+00  1.19864845860E+00
  1.22825507553E+00  1.25859297590E+00  1.28968022240E+00  1.32153532390E+00
  1.35417724640E+00  1.38762542438E+00  1.42189977236E+00  1.45702069674E+00
  1.49300910795E+00  1.52988643292E+00  1.56767462781E+00  1.60639619112E+00
  1.64607417704E+00  1.68673220921E+00  1.72839449478E+00  1.77108583880E+00
  1.81483165902E+00  1.85965800100E+00  1.90559155362E+00
  </PP_RAB>
</PP_MESH>


<PP_LOCAL>
 -1.97869339369E+01 -1.97869340282E+01 -1.97869341179E+01 -1.97869342062E+01
 -1.97869342932E+01 -1.97869343788E+01 -1.97869344632E+01 -1.97869345464E+01
 -1.97869346285E+01 -1.97869347097E+01 -1.97869347899E+01 -1.97869348692E+01
 -1.97869349477E+01 -1.97869350255E+01 -1.97869351027E+01 -1.97869351793E+01
 -1.97869352555E+01 -1.97869353312E+01 -1.97869354067E+01 -1.97869354819E+01
 -1.97869355569E+01 -1.97869356320E+01 -1.97869357070E+01 -1.97869357823E+01
 -1.97869358577E+01 -1.97869359335E+01 -1.97869360098E+01 -1.97869360866E+01
 -1.97869361640E+01 -1.97869362423E+01 -1.97869363214E+01 -1.97869364016E+01
 -1.97869364830E+01 -1.97869365656E+01 -1.97869366497E+01 -1.97869367354E+01
 -1.97869368229E+01 -1.97869369122E+01 -1.97869370037E+01 -1.97869370974E+01
 -1.97869371935E+01 -1.97869372924E+01 -1.97869373940E+01 -1.97869374988E+01
 -1.97869376069E+01 -1.97869377186E+01 -1.97869378340E+01 -1.97869379536E+01
 -1.97869380776E+01 -1.97869382063E+01 -1.97869383399E+01 -1.97869384790E+01
 -1.97869386238E+01 -1.97869387748E+01 -1.97869389323E+01 -1.97869390968E+01
 -1.97869392687E+01 -1.97869394487E+01 -1.97869396371E+01 -1.97869398347E+01
 -1.97869400419E+01 -1.97869402595E+01 -1.97869404882E+01 -1.97869407287E+01
 -1.97869409818E+01 -1.97869412485E+01 -1.97869415296E+01 -1.97869418262E+01
 -1.97869421393E+01 -1.97869424702E+01 -1.97869428200E+01 -1.97869431902E+01
 -1.97869435823E+01 -1.97869439978E+01 -1.97869444384E+01 -1.97869449062E+01
 -1.97869454030E+01 -1.97869459312E+01 -1.97869464930E+01 -1.97869470913E+01
 -1.97869477287E+01 -1.97869484085E+01 -1.97869491341E+01 -1.97869499091E+01
 -1.97869507377E+01 -1.97869516244E+01 -1.97869525740E+01 -1.97869535919E+01
 -1.97869546840E+01 -1.97869558569E+01 -1.97869571177E+01 -1.97869584743E+01
 -1.97869599355E+01 -1.97869615109E+01 -1.97869632111E+01 -1.97869650481E+01
 -1.97869670349E+01 -1.97869691861E+01 -1.97869715179E+01 -1.97869740483E+01
 -1.97869767973E+01 -1.97869797875E+01 -1.97869830437E+01 -1.97869865941E+01
 -1.97869904699E+01 -1.97869947062E+01 -1.97869993426E+01 -1.97870044232E+01
 -1.97870099981E+01 -1.97870161234E+01 -1.97870228625E+01 -1.97870302870E+01
 -1.97870384779E+01 -1.97870475270E+01 -1.97870575384E+01 -1.97870686301E+01
 -1.97870809365E+01 -1.97870946104E+01 -1.97871098263E+01 -1.97871267829E+01
 -1.97871457077E+01 -1.97871668609E+01 -1.97871905407E+01 -1.97872170891E+01
 -1.97872468993E+01 -1.97872804234E+01 -1.97873181823E+01 -1.97873607767E+01
 -1.97874089004E+01 -1.97874633558E+01 -1.97875250717E+01 -1.97875951251E+01
 -1.97876747661E+01 -1.97877654475E+01 -1.97878688603E+01 -1.97879869743E+01
 -1.97881220876E+01 -1.97882768846E+01 -1.97884545042E+01 -1.97886586214E+01
 -1.97888935443E+01 -1.97891643286E+01 -1.97894769144E+01 -1.97898382893E+01
 -1.97902566818E+01 -1.97907417934E+01 -1.97913050747E+01 -1.97919600559E+01
 -1.97927227422E+01 -1.97936120874E+01 -1.97946505617E+01 -1.97958648329E+01
 -1.97972865852E+01 -1.97989535038E+01 -1.98009104593E+01 -1.98032109365E+01
 -1.98059187564E+01 -1.98091101570E+01 -1.98128763069E+01 -1.98173263479E+01
 -1.98225910776E+01 -1.98288274128E+01 -1.98362238009E+01 -1.98450067819E+01
 -1.98554489485E+01 -1.98678785940E+01 -1.98826913983E+01 -1.99003645540E+01
 -1.99214737973E+01 -1.99467138579E+01 -1.99769228697E+01 -2.00131112766E+01
 -2.00564956743E+01 -2.01085378131E+01 -2.01709885570E+01 -2.02459358484E+01
 -2.03358545072E+01 -2.04436538012E+01 -2.05727159268E+01 -2.07269145839E+01
 -2.09105975172E+01 -2.11285101995E+01 -2.13856301112E+01 -2.16868733565E+01
 -2.20366298118E+01 -2.24380832966E+01 -2.28922848761E+01 -2.33969773488E+01
 -2.39452244049E+01 -2.45239831186E+01 -2.51128695635E+01 -2.56834860253E+01
 -2.61997659471E+01 -2.66197909056E+01 -2.68993769649E+01 -2.69973729829E+01
 -2.68820849567E+01 -2.65376670303E+01 -2.59689310029E+01 -2.52030741797E+01
 -2.42874403782E+01 -2.32834864372E+01 -2.22582425593E+01 -2.12752605866E+01
 -2.03870502533E+01 -1.96303623520E+01 -1.90247275100E+01 -1.85738034010E+01
 -1.82685817601E+01 -1.80914033439E+01 -1.80199118133E+01 -1.80303860627E+01
 -1.81001960244E+01 -1.82093602044E+01 -1.83413259751E+01 -1.84831576768E+01
 -1.86253259511E+01 -1.87612676166E+01 -1.88868470714E+01 -1.89998099206E+01
 -1.90992841716E+01 -1.91853568655E+01 -1.92587347649E+01 -1.93204856540E+01
 -1.93718503040E+01 -1.94141125431E+01 -1.94485147288E+01 -1.94762071448E+01
 -1.94982216877E+01 -1.95154621758E+01 -1.95287054454E+01 -1.95386089684E+01
 -1.95457219817E+01 -1.95504981003E+01 -1.95533081009E+01 -1.95544520879E+01
 -1.95541706089E+01 -1.95526545281E+01 -1.95500536196E+01 -1.95464839342E+01
 -1.95420340440E+01 -1.95367702913E+01 -1.95307411754E+01 -1.95239810029E+01
 -1.95165129198E+01 -1.95083514279E+01 -1.94995044753E+01 -1.94899751973E+01
 -1.94797633724E+01 -1.94688666472E+01 -1.94572815759E+01 -1.94450045118E+01
 -1.94320323846E+01 -1.94183633893E+01 -1.94039976139E+01 -1.93889376244E+01
 -1.93731890294E+01 -1.93567610410E+01 -1.93396670497E+01 -1.93219252277E+01
 -1.93035591778E+01 -1.92845986393E+01 -1.92650802651E+01 -1.92450484807E+01
 -1.92245564342E+01 -1.92036670438E+01 -1.91824541462E+01 -1.91610037438E+01
 -1.91394153436E+01 -1.91178033699E+01 -1.90962986269E+01 -1.90750497672E+01
 -1.90542247104E+01 -1.90340119304E+01 -1.90146215053E+01 -1.89962857906E+01
 -1.89792595376E+01 -1.89638192397E+01 -1.89502614369E+01 -1.89388996645E+01
 -1.89300596833E+01 -1.89240725906E+01 -1.89212653913E+01 -1.89219486151E+01
 -1.89264006188E+01 -1.89348483274E+01 -1.89474443633E+01 -1.89642408096E+01
 -1.89851602645E+01 -1.90099653723E+01 -1.90382286465E+01 -1.90693050925E+01
 -1.91023108165E+01 -1.91361113679E+01 -1.91693238535E+01 -1.92003367400E+01
 -1.92273505642E+01 -1.92484413946E+01 -1.92616468229E+01 -1.92650715844E+01
 -1.92570068624E+01 -1.92360542567E+01 -1.92012427630E+01 -1.91521254312E+01
 -1.90888422109E+01 -1.90121373950E+01 -1.89233244260E+01 -1.88241976281E+01
 -1.87168989466E+01 -1.86037563055E+01 -1.84871163462E+01 -1.83691957591E+01
 -1.82519711641E+01 -1.81371185730E+01 -1.80260027452E+01 -1.79197075525E+01
 -1.78190930443E+01 -1.77248635234E+01 -1.76376322164E+01 -1.75579699560E+01
 -1.74864259654E+01 -1.74235077820E+01 -1.73696056507E+01 -1.73248477384E+01
 -1.72888822969E+01 -1.72606092431E+01 -1.72379309912E+01 -1.72176505409E+01
 -1.71956759819E+01 -1.71676342833E+01 -1.71298183818E+01 -1.70801560869E+01
 -1.70187737587E+01 -1.69478787153E+01 -1.68710349528E+01 -1.67921984592E+01
 -1.67149115388E+01 -1.66418678188E+01 -1.65748358708E+01 -1.65148062677E+01
 -1.64622176085E+01 -1.64171659585E+01 -1.63795563723E+01 -1.63491911919E+01
 -1.63258064059E+01 -1.63090714663E+01 -1.62985664050E+01 -1.62937470279E+01
 -1.62939062492E+01 -1.62981377206E+01 -1.63053066167E+01 -1.63140313315E+01
 -1.63226785147E+01 -1.63293721423E+01 -1.63320152868E+01 -1.63283214190E+01
 -1.63158510208E+01 -1.62920494854E+01 -1.62542837044E+01 -1.61998769798E+01
 -1.61261445399E+01 -1.60304352520E+01 -1.59101902050E+01 -1.57630363909E+01
 -1.55869411248E+01 -1.53804515012E+01 -1.51430215461E+01 -1.48753853354E+01
 -1.45798865332E+01 -1.42606575475E+01 -1.39235713853E+01 -1.35759409408E+01
 -1.32259659962E+01 -1.28819027417E+01 -1.25508687375E+01 -1.22371242212E+01
 -1.19395959265E+01 -1.16514759718E+01 -1.13705059496E+01 -1.10964557356E+01
 -1.08291105802E+01 -1.05682707548E+01 -1.03137502555E+01 -1.00653752755E+01
 -9.82298261713E+00 -9.58641816765E+00 -9.35553552091E+00 -9.13019478543E+00
 -8.91026158996E+00 -8.69560627784E+00 -8.48610326988E+00 -8.28163057067E+00
 -8.08206939212E+00 -7.88730386987E+00 -7.69722085150E+00 -7.51170973874E+00
 -7.33066236994E+00 -7.15397293221E+00 -6.98153789526E+00 -6.81325596155E+00
 -6.64902802817E+00 -6.48875715745E+00 -6.33234855316E+00 -6.17970953996E+00
 -6.03074954358E+00 -5.88538007004E+00 -5.74351468224E+00 -5.60506897313E+00
 -5.46996053507E+00 -5.33810892561E+00 -5.20943563003E+00 -5.08386402155E+00
 -4.96131931989E+00 -4.84172854890E+00 -4.72502049401E+00 -4.61112565986E+00
 -4.49997622864E+00 -4.39150601914E+00 -4.28565044690E+00 -4.18234648526E+00
 -4.08153262747E+00 -3.98314884988E+00 -3.88713657594E+00 -3.79343864124E+00