<PP_INFO>
Generated using ld1 code (maybe, or maybe not)                                  
Author: unknown    Generation date: as well                                     
Info: automatically converted from PWSCF format                                 
    1        The Pseudo was generated with a Scalar-Relativistic Calculation
nl pn  l   occ               Rcut            Rcut US             E pseu
*S  0  0  1.00      0.00000000000      0.00000000000      0.00000000000
</PP_INFO>


<PP_HEADER>
   0                   Version Number
  K                    Element
   NC                  Norm - Conserving pseudopotential
    F                  Nonlinear Core Correction
SLA  PW   PBE  PBE     PBE  Exchange-Correlation functional
    1.00000000000      Z valence
    0.00000000000      Total energy
  0.0000000  0.0000000 Suggested cutoff for wfc and rho
   -1                  Max angular momentum component
 1152                  Number of points in mesh
    1    0             Number of Wavefunctions, Number of Projectors
 Wavefunctions         nl  l   occ
                       *S  0  1.00
</PP_HEADER>


<PP_MESH>
  <PP_R>
  3.74756196471E-05  3.79659831594E-05  3.84627630132E-05  3.89660431656E-05
  3.94759086719E-05  3.99924457008E-05  4.05157415482E-05  4.10458846523E-05
  4.15829646087E-05  4.21270721850E-05  4.26782993368E-05  4.32367392228E-05
  4.38024862206E-05  4.43756359428E-05  4.49562852531E-05  4.55445322826E-05
  4.61404764465E-05  4.67442184607E-05  4.73558603591E-05  4.79755055106E-05
  4.86032586368E-05  4.92392258293E-05  4.98835145682E-05  5.05362337397E-05
  5.11974936551E-05  5.18674060687E-05  5.25460841974E-05  5.32336427394E-05
  5.39301978937E-05  5.46358673799E-05  5.53507704576E-05  5.60750279473E-05
  5.68087622502E-05  5.75520973691E-05  5.83051589295E-05  5.90680742005E-05
  5.98409721166E-05  6.06239832994E-05  6.14172400797E-05  6.22208765197E-05
  6.30350284360E-05  6.38598334221E-05  6.46954308721E-05  6.55419620038E-05
  6.63995698831E-05  6.72683994478E-05  6.81485975321E-05  6.90403128916E-05
  6.99436962282E-05  7.08589002160E-05  7.17860795266E-05  7.27253908555E-05
  7.36769929485E-05  7.46410466287E-05  7.56177148235E-05  7.66071625920E-05
  7.76095571533E-05  7.86250679145E-05  7.96538664993E-05  8.06961267772E-05
  8.17520248925E-05  8.28217392946E-05  8.39054507678E-05  8.50033424619E-05
  8.61155999231E-05  8.72424111257E-05  8.83839665034E-05  8.95404589819E-05
  9.07120840110E-05  9.18990395982E-05  9.31015263418E-05  9.43197474650E-05
  9.55539088500E-05  9.68042190730E-05  9.80708894395E-05  9.93541340196E-05
  1.00654169685E-04  1.01971216144E-04  1.03305495982E-04  1.04657234695E-04
  1.06026660729E-04  1.07414005521E-04  1.08819503536E-04  1.10243392306E-04
  1.11685912472E-04  1.13147307822E-04  1.14627825337E-04  1.16127715227E-04
  1.17647230978E-04  1.19186629391E-04  1.20746170627E-04  1.22326118254E-04
  1.23926739286E-04  1.25548304232E-04  1.27191087140E-04  1.28855365645E-04
  1.30541421013E-04  1.32249538192E-04  1.33980005857E-04  1.35733116463E-04
  1.37509166288E-04  1.39308455490E-04  1.41131288152E-04  1.42977972338E-04
  1.44848820141E-04  1.46744147740E-04  1.48664275449E-04  1.50609527774E-04
  1.52580233468E-04  1.54576725585E-04  1.56599341536E-04  1.58648423149E-04
  1.60724316723E-04  1.62827373088E-04  1.64957947668E-04  1.67116400533E-04
  1.69303096468E-04  1.71518405028E-04  1.73762700608E-04  1.76036362498E-04
  1.78339774951E-04  1.80673327252E-04  1.83037413774E-04  1.85432434055E-04
  1.87858792859E-04  1.90316900246E-04  1.92807171642E-04  1.95330027909E-04
  1.97885895416E-04  2.00475206109E-04  2.03098397590E-04  2.05755913184E-04
  2.08448202016E-04  2.11175719091E-04  2.13938925365E-04  2.16738287826E-04
  2.19574279574E-04  2.22447379898E-04  2.25358074359E-04  2.28306854870E-04
  2.31294219784E-04  2.34320673971E-04  2.37386728909E-04  2.40492902770E-04
  2.43639720504E-04  2.46827713930E-04  2.50057421827E-04  2.53329390024E-04
  2.56644171491E-04  2.60002326434E-04  2.63404422388E-04  2.66851034317E-04
  2.70342744706E-04  2.73880143662E-04  2.77463829015E-04  2.81094406415E-04
  2.84772489438E-04  2.88498699690E-04  2.92273666909E-04  2.96098029073E-04
  2.99972432509E-04  3.03897532000E-04  3.07873990897E-04  3.11902481232E-04
  3.15983683828E-04  3.20118288419E-04  3.24306993762E-04  3.28550507759E-04
  3.32849547574E-04  3.37204839755E-04  3.41617120356E-04  3.46087135064E-04
  3.50615639321E-04  3.55203398456E-04  3.59851187811E-04  3.64559792872E-04
  3.69330009407E-04  3.74162643592E-04  3.79058512154E-04  3.84018442508E-04
  3.89043272891E-04  3.94133852514E-04  3.99291041697E-04  4.04515712015E-04
  4.09808746452E-04  4.15171039542E-04  4.20603497526E-04  4.26107038502E-04
  4.31682592582E-04  4.37331102048E-04  4.43053521510E-04  4.48850818073E-04
  4.54723971491E-04  4.60673974344E-04  4.66701832194E-04  4.72808563765E-04
  4.78995201108E-04  4.85262789781E-04  4.91612389020E-04  4.98045071923E-04
  5.04561925628E-04  5.11164051500E-04  5.17852565312E-04  5.24628597442E-04
  5.31493293052E-04  5.38447812294E-04  5.45493330499E-04  5.52631038374E-04
  5.59862142210E-04  5.67187864080E-04  5.74609442050E-04  5.82128130383E-04
  5.89745199755E-04  5.97461937470E-04  6.05279647675E-04  6.13199651580E-04
  6.21223287686E-04  6.29351912006E-04  6.37586898297E-04  6.45929638292E-04
  6.54381541933E-04  6.62944037612E-04  6.71618572411E-04  6.80406612347E-04
  6.89309642621E-04  6.98329167864E-04  7.07466712399E-04  7.16723820492E-04
  7.26102056617E-04  7.35603005718E-04  7.45228273477E-04  7.54979486588E-04
  7.64858293029E-04  7.74866362343E-04  7.85005385916E-04  7.95277077267E-04
  8.05683172337E-04  8.16225429781E-04  8.26905631266E-04  8.37725581770E-04
  8.48687109891E-04  8.59792068154E-04  8.71042333323E-04  8.82439806719E-04
  8.93986414543E-04  9.05684108199E-04  9.17534864625E-04  9.29540686626E-04
  9.41703603216E-04  9.54025669957E-04  9.66508969306E-04  9.79155610971E-04
  9.91967732266E-04  1.00494749847E-03  1.01809710319E-03  1.03141876874E-03
  1.04491474652E-03  1.05858731739E-03  1.07243879202E-03  1.08647151137E-03
  1.10068784698E-03  1.11509020147E-03  1.12968100885E-03  1.14446273501E-03
  1.15943787809E-03  1.17460896894E-03  1.18997857150E-03  1.20554928327E-03
  1.22132373573E-03  1.23730459482E-03  1.25349456133E-03  1.26989637140E-03
  1.28651279698E-03  1.30334664628E-03  1.32040076427E-03  1.33767803313E-03
  1.35518137277E-03  1.37291374128E-03  1.39087813548E-03  1.40907759140E-03
  1.42751518478E-03  1.44619403163E-03  1.46511728871E-03  1.48428815410E-03
  1.50370986772E-03  1.52338571188E-03  1.54331901186E-03  1.56351313643E-03
  1.58397149843E-03  1.60469755539E-03  1.62569481005E-03  1.64696681101E-03
  1.66851715328E-03  1.69034947892E-03  1.71246747764E-03  1.73487488744E-03
  1.75757549523E-03  1.78057313746E-03  1.80387170079E-03  1.82747512273E-03
  1.85138739231E-03  1.87561255077E-03  1.90015469222E-03  1.92501796433E-03
  1.95020656906E-03  1.97572476334E-03  2.00157685981E-03  2.02776722753E-03
  2.05430029274E-03  2.08118053958E-03  2.10841251090E-03  2.13600080894E-03
  2.16395009621E-03  2.19226509619E-03  2.22095059419E-03  2.25001143813E-03
  2.27945253935E-03  2.30927887348E-03  2.33949548124E-03  2.37010746930E-03
  2.40112001117E-03  2.43253834803E-03  2.46436778966E-03  2.49661371531E-03
  2.52928157463E-03  2.56237688854E-03  2.59590525026E-03  2.62987232614E-03
  2.66428385670E-03  2.69914565757E-03  2.73446362048E-03  2.77024371426E-03
  2.80649198581E-03  2.84321456119E-03  2.88041764660E-03  2.91810752945E-03
  2.95629057941E-03  2.99497324952E-03  3.03416207724E-03  3.07386368557E-03
  3.11408478418E-03  3.15483217052E-03  3.19611273102E-03  3.23793344217E-03
  3.28030137178E-03  3.32322368013E-03  3.36670762119E-03  3.41076054385E-03
  3.45538989317E-03  3.50060321160E-03  3.54640814030E-03  3.59281242042E-03
  3.63982389439E-03  3.68745050726E-03  3.73570030804E-03  3.78458145107E-03
  3.83410219737E-03  3.88427091607E-03  3.93509608579E-03  3.98658629612E-03
  4.03875024903E-03  4.09159676033E-03  4.14513476123E-03  4.19937329977E-03
  4.25432154239E-03  4.30998877548E-03  4.36638440693E-03  4.42351796774E-03
  4.48139911361E-03  4.54003762660E-03  4.59944341675E-03  4.65962652379E-03
  4.72059711880E-03  4.78236550596E-03  4.84494212427E-03  4.90833754933E-03
  4.97256249512E-03  5.03762781581E-03  5.10354450758E-03  5.17032371053E-03
  5.23797671049E-03  5.30651494098E-03  5.37594998513E-03  5.44629357761E-03
  5.51755760668E-03  5.58975411611E-03  5.66289530730E-03  5.73699354127E-03
  5.81206134080E-03  5.88811139253E-03  5.96515654910E-03  6.04320983133E-03
  6.12228443040E-03  6.20239371011E-03  6.28355120912E-03  6.36577064324E-03
  6.44906590775E-03  6.53345107974E-03  6.61894042052E-03  6.70554837799E-03
  6.79328958909E-03  6.88217888230E-03  6.97223128012E-03  7.06346200162E-03
  7.15588646502E-03  7.24952029025E-03  7.34437930167E-03  7.44047953067E-03
  7.53783721843E-03  7.63646881861E-03  7.73639100020E-03  7.83762065028E-03
  7.94017487691E-03  8.04407101198E-03  8.14932661421E-03  8.25595947203E-03
  8.36398760665E-03  8.47342927508E-03  8.58430297323E-03  8.69662743901E-03
  8.81042165552E-03  8.92570485427E-03  9.04249651838E-03  9.16081638593E-03
  9.28068445324E-03  9.40212097832E-03  9.52514648422E-03  9.64978176255E-03
  9.77604787697E-03  9.90396616674E-03  1.00335582504E-02  1.01648460292E-02
  1.02978516912E-02  1.04325977147E-02  1.05691068720E-02  1.07074022336E-02
  1.08475071716E-02  1.09894453641E-02  1.11332407990E-02  1.12789177782E-02
  1.14265009213E-02  1.15760151702E-02  1.17274857933E-02  1.18809383893E-02
  1.20363988923E-02  1.21938935753E-02  1.23534490553E-02  1.25150922976E-02
  1.26788506203E-02  1.28447516990E-02  1.30128235712E-02  1.31830946416E-02
  1.33555936864E-02  1.35303498583E-02  1.37073926915E-02  1.38867521067E-02
  1.40684584161E-02  1.42525423284E-02  1.44390349544E-02  1.46279678115E-02
  1.48193728301E-02  1.50132823579E-02  1.52097291662E-02  1.54087464549E-02
  1.56103678585E-02  1.58146274514E-02  1.60215597539E-02  1.62311997382E-02
  1.64435828338E-02  1.66587449341E-02  1.68767224020E-02  1.70975520761E-02
  1.73212712772E-02  1.75479178143E-02  1.77775299914E-02  1.80101466133E-02
  1.82458069929E-02  1.84845509572E-02  1.87264188547E-02  1.89714515616E-02
  1.92196904889E-02  1.94711775896E-02  1.97259553657E-02  1.99840668752E-02
  2.02455557396E-02  2.05104661511E-02  2.07788428801E-02  2.10507312831E-02
  2.13261773098E-02  2.16052275112E-02  2.18879290474E-02  2.21743296958E-02
  2.24644778587E-02  2.27584225718E-02  2.30562135124E-02  2.33579010081E-02
  2.36635360445E-02  2.39731702750E-02  2.42868560282E-02  2.46046463179E-02
  2.49265948514E-02  2.52527560388E-02  2.55831850020E-02  2.59179375844E-02
  2.62570703599E-02  2.66006406429E-02  2.69487064974E-02  2.73013267474E-02
  2.76585609866E-02  2.80204695885E-02  2.83871137164E-02  2.87585553341E-02
  2.91348572161E-02  2.95160829584E-02  2.99022969889E-02  3.02935645787E-02
  3.06899518531E-02  3.10915258024E-02  3.14983542935E-02  3.19105060815E-02
  3.23280508209E-02  3.27510590779E-02  3.31796023419E-02  3.36137530375E-02
  3.40535845375E-02  3.44991711743E-02  3.49505882531E-02  3.54079120646E-02
  3.58712198974E-02  3.63405900518E-02  3.68161018524E-02  3.72978356619E-02
  3.77858728943E-02  3.82802960292E-02  3.87811886253E-02  3.92886353345E-02
  3.98027219166E-02  4.03235352534E-02  4.08511633637E-02  4.13856954178E-02
  4.19272217529E-02  4.24758338883E-02  4.30316245408E-02  4.35946876402E-02
  4.41651183455E-02  4.47430130610E-02  4.53284694522E-02  4.59215864626E-02
  4.65224643304E-02  4.71312046054E-02  4.77479101662E-02  4.83726852374E-02
  4.90056354076E-02  4.96468676468E-02  5.02964903248E-02  5.09546132293E-02
  5.16213475848E-02  5.22968060709E-02  5.29811028417E-02  5.36743535449E-02
  5.43766753417E-02  5.50881869260E-02  5.58090085450E-02  5.65392620193E-02
  5.72790707635E-02  5.80285598069E-02  5.87878558150E-02  5.95570871107E-02
  6.03363836959E-02  6.11258772736E-02  6.19257012699E-02  6.27359908572E-02
  6.35568829763E-02  6.43885163598E-02  6.52310315559E-02  6.60845709515E-02
  6.69492787970E-02  6.78253012299E-02  6.87127863001E-02  6.96118839947E-02
  7.05227462635E-02  7.14455270442E-02  7.23803822890E-02  7.33274699907E-02
  7.42869502094E-02  7.52589850994E-02  7.62437389371E-02  7.72413781481E-02
  7.82520713359E-02  7.92759893099E-02  8.03133051149E-02  8.13641940595E-02
  8.24288337466E-02  8.35074041028E-02  8.46000874091E-02  8.57070683314E-02
  8.68285339524E-02  8.79646738022E-02  8.91156798912E-02  9.02817467423E-02
  9.14630714234E-02  9.26598535813E-02  9.38722954750E-02  9.51006020100E-02
  9.63449807732E-02  9.76056420674E-02  9.88827989474E-02  1.00176667256E-01
  1.01487465659E-01  1.02815415686E-01  1.04160741763E-01  1.05523671253E-01
  1.06904434495E-01  1.08303264840E-01  1.09720398695E-01  1.11156075559E-01
  1.12610538064E-01  1.14084032018E-01  1.15576806445E-01  1.17089113627E-01
  1.18621209148E-01  1.20173351936E-01  1.21745804306E-01  1.23338832007E-01
  1.24952704264E-01  1.26587693826E-01  1.28244077009E-01  1.29922133746E-01
  1.31622147633E-01  1.33344405977E-01  1.35089199842E-01  1.36856824104E-01
  1.38647577494E-01  1.40461762656E-01  1.42299686189E-01  1.44161658708E-01
  1.46047994891E-01  1.47959013532E-01  1.49895037599E-01  1.51856394284E-01
  1.53843415061E-01  1.55856435741E-01  1.57895796530E-01  1.59961842084E-01
  1.62054921570E-01  1.64175388724E-01  1.66323601909E-01  1.68499924179E-01
  1.70704723337E-01  1.72938372000E-01  1.75201247659E-01  1.77493732745E-01
  1.79816214696E-01  1.82169086014E-01  1.84552744342E-01  1.86967592522E-01
  1.89414038671E-01  1.91892496243E-01  1.94403384104E-01  1.96947126599E-01
  1.99524153627E-01  2.02134900713E-01  2.04779809077E-01  2.07459325717E-01
  2.10173903477E-01  2.12924001126E-01  2.15710083439E-01  2.18532621269E-01
  2.21392091632E-01  2.24288977785E-01  2.27223769310E-01  2.30196962192E-01
  2.33209058909E-01  2.36260568512E-01  2.39352006713E-01  2.42483895973E-01
  2.45656765589E-01  2.48871151783E-01  2.52127597794E-01  2.55426653969E-01
  2.58768877856E-01  2.62154834300E-01  2.65585095534E-01  2.69060241282E-01
  2.72580858851E-01  2.76147543234E-01  2.79760897209E-01  2.83421531441E-01
  2.87130064587E-01  2.90887123397E-01  2.94693342823E-01  2.98549366126E-01
  3.02455844982E-01  3.06413439596E-01  3.10422818810E-01  3.14484660220E-01
  3.18599650286E-01  3.22768484451E-01  3.26991867257E-01  3.31270512468E-01
  3.35605143184E-01  3.39996491968E-01  3.44445300968E-01  3.48952322044E-01
  3.53518316893E-01  3.58144057179E-01  3.62830324663E-01  3.67577911335E-01
  3.72387619549E-01  3.77260262157E-01  3.82196662648E-01  3.87197655284E-01
  3.92264085245E-01  3.97396808771E-01  4.02596693303E-01  4.07864617634E-01
  4.13201472057E-01  4.18608158511E-01  4.24085590741E-01  4.29634694445E-01
  4.35256407435E-01  4.40951679794E-01  4.46721474036E-01  4.52566765271E-01
  4.58488541366E-01  4.64487803116E-01  4.70565564410E-01  4.76722852404E-01
  4.82960707695E-01  4.89280184495E-01  4.95682350811E-01  5.02168288624E-01
  5.08739094073E-01  5.15395877640E-01  5.22139764337E-01  5.28971893896E-01
  5.35893420965E-01  5.42905515297E-01  5.50009361954E-01  5.57206161502E-01
  5.64497130217E-01  5.71883500291E-01  5.79366520037E-01  5.86947454105E-01
  5.94627583689E-01  6.02408206750E-01  6.10290638232E-01  6.18276210284E-01
  6.26366272487E-01  6.34562192081E-01  6.42865354196E-01  6.51277162086E-01
  6.59799037367E-01  6.68432420255E-01  6.77178769813E-01  6.86039564194E-01
  6.95016300896E-01  7.04110497006E-01  7.13323689466E-01  7.22657435327E-01
  7.32113312015E-01  7.41692917595E-01  7.51397871043E-01  7.61229812520E-01
  7.71190403647E-01  7.81281327788E-01  7.91504290333E-01  8.01861018987E-01
  8.12353264061E-01  8.22982798771E-01  8.33751419532E-01  8.44660946268E-01
  8.55713222714E-01  8.66910116731E-01  8.78253520621E-01  8.89745351447E-01
  9.01387551355E-01  9.13182087904E-01  9.25130954399E-01  9.37236170228E-01
  9.49499781200E-01  9.61923859896E-01  9.74510506013E-01  9.87261846724E-01
  1.00018003704E+00  1.01326726016E+00  1.02652572786E+00  1.03995768085E+00
  1.05356538916E+00  1.06735115253E+00  1.08131730079E+00  1.09546619425E+00
  1.10980022410E+00  1.12432181282E+00  1.13903341461E+00  1.15393751576E+00
  1.16903663510E+00  1.18433332441E+00  1.19983016887E+00  1.21552978748E+00
  1.23143483352E+00  1.24754799498E+00  1.26387199502E+00  1.28040959243E+00
  1.29716358212E+00  1.31413679553E+00  1.33133210120E+00  1.34875240515E+00
  1.36640065147E+00  1.38427982276E+00  1.40239294063E+00  1.42074306624E+00
  1.43933330082E+00  1.45816678615E+00  1.47724670513E+00  1.49657628232E+00
  1.51615878447E+00  1.53599752106E+00  1.55609584489E+00  1.57645715262E+00
  1.59708488536E+00  1.61798252925E+00  1.63915361604E+00  1.66060172368E+00
  1.68233047698E+00  1.70434354812E+00  1.72664465738E+00  1.74923757370E+00
  1.77212611534E+00  1.79531415050E+00  1.81880559803E+00  1.84260442803E+00
  1.86671466257E+00  1.89114037633E+00  1.91588569731E+00  1.94095480754E+00
  1.96635194375E+00  1.99208139811E+00  2.01814751898E+00  2.04455471157E+00
  2.07130743879E+00  2.09841022188E+00  2.12586764130E+00  2.15368433741E+00
  2.18186501130E+00  2.21041442557E+00  2.23933740514E+00  2.26863883806E+00
  2.29832367635E+00  2.32839693680E+00  2.35886370188E+00  2.38972912054E+00
  2.42099840911E+00  2.45267685217E+00  2.48476980346E+00  2.51728268675E+00
  2.55022099682E+00  2.58359030030E+00  2.61739623669E+00  2.65164451928E+00
  2.68634093610E+00  2.72149135093E+00  2.75710170428E+00  2.79317801437E+00
  2.82972637820E+00  2.86675297253E+00  2.90426405493E+00  2.94226596486E+00
  2.98076512475E+00  3.01976804104E+00  3.05928130531E+00  3.09931159541E+00
  3.13986567654E+00  3.18095040245E+00  3.22257271654E+00  3.26473965309E+00
  3.30745833842E+00  3.35073599208E+00  3.39457992809E+00  3.43899755619E+00
  3.48399638306E+00  3.52958401362E+00  3.57576815227E+00  3.62255660425E+00
  3.66995727692E+00  3.71797818111E+00  3.76662743246E+00  3.81591325280E+00
  3.86584397157E+00  3.91642802717E+00  3.96767396843E+00  4.01959045604E+00
  4.07218626400E+00  4.12547028112E+00  4.17945151255E+00  4.23413908123E+00
  4.28954222949E+00  4.34567032060E+00  4.40253284033E+00  4.46013939859E+00
  4.51849973103E+00  4.57762370068E+00  4.63752129962E+00  4.69820265071E+00
  4.75967800922E+00  4.82195776465E+00  4.88505244241E+00  4.94897270567E+00
  5.01372935709E+00  5.07933334070E+00  5.14579574374E+00  5.21312779851E+00
  5.28134088428E+00  5.35044652924E+00  5.42045641239E+00  5.49138236557E+00
  5.56323637545E+00  5.63603058551E+00  5.70977729816E+00  5.78448897676E+00
  5.86017824776E+00  5.93685790284E+00  6.01454090103E+00  6.09324037095E+00
  6.17296961300E+00  6.25374210160E+00  6.33557148750E+00  6.41847160007E+00
  6.50245644961E+00  6.58754022976E+00  6.67373731990E+00  6.76106228752E+00
  6.84952989076E+00  6.93915508086E+00  7.02995300468E+00  7.12193900730E+00
  7.21512863455E+00  7.30953763572E+00  7.40518196614E+00  7.50207778995E+00
  7.60024148275E+00  7.69968963445E+00  7.80043905203E+00  7.90250676238E+00
  8.00591001517E+00  8.11066628582E+00  8.21679327837E+00  8.32430892854E+00
  8.43323140673E+00  8.54357912110E+00  8.65537072068E+00  8.76862509851E+00
  8.88336139485E+00  8.99959900041E+00  9.11735755962E+00  9.23665697396E+00
  9.35751740531E+00  9.47995927938E+00  9.60400328913E+00  9.72967039829E+00
  9.85698184490E+00  9.98595914491E+00  1.01166240958E+01  1.02489987802E+01
  1.03831055698E+01  1.05189671290E+01  1.06566064186E+01  1.07960467001E+01
  1.09373115392E+01  1.10804248100E+01  1.12254106989E+01  1.13722937089E+01
  1.15210986637E+01  1.16718507116E+01  1.18245753300E+01  1.19792983297E+01
  1.21360458594E+01  1.22948444098E+01  1.24557208181E+01  1.26187022729E+01
  1.27838163184E+01  1.29510908593E+01  1.31205541653E+01  1.32922348763E+01
  1.34661620065E+01  1.36423649502E+01  1.38208734861E+01  1.40017177824E+01
  1.41849284024E+01  1.43705363091E+01  1.45585728706E+01  1.47490698655E+01
  1.49420594884E+01  1.51375743549E+01  1.53356475075E+01  1.55363124210E+01
  1.57396030083E+01  1.59455536259E+01  1.61541990801E+01  1.63655746324E+01
  1.65797160057E+01  1.67966593905E+01  1.70164414507E+01  1.72390993300E+01
  1.74646706582E+01  1.76931935572E+01  1.79247066481E+01  1.81592490570E+01
  1.83968604223E+01  1.86375809008E+01  1.88814511748E+01  1.91285124589E+01
  1.93788065073E+01  1.96323756200E+01  1.98892626509E+01  2.01495110146E+01
  2.04131646936E+01  2.06802682460E+01  2.09508668130E+01  2.12250061263E+01
  2.15027325162E+01  2.17840929190E+01  2.20691348854E+01  2.23579065881E+01
  2.26504568303E+01  2.29468350536E+01  2.32470913466E+01  2.35512764533E+01
  2.38594417819E+01  2.41716394129E+01  2.44879221085E+01  2.48083433212E+01
  2.51329572029E+01  2.54618186143E+01  2.57949831336E+01  2.61325070665E+01
  2.64744474552E+01  2.68208620886E+01  2.71718095115E+01  2.75273490349E+01
  2.78875407458E+01  2.82524455174E+01  2.86221250196E+01  2.89966417290E+01
  2.93760589399E+01  2.97604407747E+01  3.01498521948E+01  3.05443590117E+01
  3.09440278980E+01  3.13489263986E+01  3.17591229424E+01  3.21746868536E+01
  3.25956883634E+01  3.30221986221E+01  3.34542897110E+01  3.38920346545E+01
  3.43355074325E+01  3.47847829930E+01  3.52399372646E+01  3.57010471695E+01
  3.61681906363E+01  3.66414466134E+01  3.71208950822E+01  3.76066170706E+01
  3.80986946669E+01  3.85972110332E+01  3.91022504200E+01  3.96138981802E+01
  4.01322407835E+01  4.06573658310E+01  4.11893620701E+01  4.17283194094E+01
  4.22743289340E+01  4.28274829209E+01  4.33878748542E+01  4.39555994417E+01
  4.45307526302E+01  4.51134316218E+01  4.57037348907E+01  4.63017621996E+01
  4.69076146165E+01  4.75213945319E+01  4.81432056761E+01  4.87731531366E+01
  4.94113433762E+01  5.00578842503E+01  5.07128850260E+01  5.13764564000E+01
  5.20487105174E+01  5.27297609908E+01  5.34197229193E+01  5.41187129081E+01
  5.48268490882E+01  5.55442511362E+01  5.62710402950E+01  5.70073393934E+01
  5.77532728679E+01  5.85089667830E+01  5.92745488527E+01  6.00501484623E+01
  6.08358966898E+01  6.16319263287E+01  6.24383719099E+01  6.32553697245E+01
  6.40830578471E+01  6.49215761590E+01  6.57710663719E+01  6.66316720515E+01
  6.75035386422E+01  6.83868134917E+01  6.92816458754E+01  7.01881870221E+01
  7.11065901395E+01  7.20370104399E+01  7.29796051665E+01  7.39345336201E+01
  7.49019571858E+01  7.58820393606E+01  7.68749457806E+01  7.78808442494E+01
  7.88999047663E+01  7.99322995549E+01  8.09782030923E+01  8.20377921388E+01
  8.31112457675E+01  8.41987453944E+01  8.53004748098E+01  8.64166202084E+01
  8.75473702215E+01  8.86929159485E+01  8.98534509895E+01  9.10291714775E+01
  9.22202761122E+01  9.34269661930E+01  9.46494456534E+01  9.58879210955E+01
  9.71426018244E+01  9.84136998843E+01  9.97014300937E+01  1.01006010082E+02
  1.02327660326E+02  1.03666604189E+02  1.05023067955E+02  1.06397280868E+02
  1.07789475176E+02  1.09199886162E+02  1.10628752188E+02  1.12076314736E+02
  1.13542818449E+02  1.15028511168E+02  1.16533643979E+02  1.18058471253E+02
  </PP_R>
  <PP_RAB>
  4.87183055412E-07  4.93557781072E-07  5.00015919172E-07  5.06558561152E-07
  5.13186812735E-07  5.19901794110E-07  5.26704640126E-07  5.33596500480E-07
  5.40578539913E-07  5.47651938405E-07  5.54817891378E-07  5.62077609896E-07
  5.69432320867E-07  5.76883267256E-07  5.84431708290E-07  5.92078919674E-07
  5.99826193805E-07  6.07674839989E-07  6.15626184669E-07  6.23681571638E-07
  6.31842362278E-07  6.40109935781E-07  6.48485689386E-07  6.56971038616E-07
  6.65567417516E-07  6.74276278893E-07  6.83099094566E-07  6.92037355612E-07
  7.01092572619E-07  7.10266275938E-07  7.19560015949E-07  7.28975363315E-07
  7.38513909253E-07  7.48177265799E-07  7.57967066083E-07  7.67884964606E-07
  7.77932637515E-07  7.88111782892E-07  7.98424121036E-07  8.08871394757E-07
  8.19455369668E-07  8.30177834488E-07  8.41040601337E-07  8.52045506050E-07
  8.63194408481E-07  8.74489192822E-07  8.85931767917E-07  8.97524067590E-07
  9.09268050967E-07  9.21165702808E-07  9.33219033846E-07  9.45430081121E-07
  9.57800908331E-07  9.70333606174E-07  9.83030292705E-07  9.95893113696E-07
  1.00892424299E-06  1.02212588289E-06  1.03550026449E-06  1.04904964810E-06
  1.06277632360E-06  1.07668261083E-06  1.09077085998E-06  1.10504345200E-06
  1.11950279900E-06  1.13415134463E-06  1.14899156454E-06  1.16402596676E-06
  1.17925709214E-06  1.19468751478E-06  1.21031984244E-06  1.22615671705E-06
  1.24220081505E-06  1.25845484795E-06  1.27492156271E-06  1.29160374226E-06
  1.30850420590E-06  1.32562580988E-06  1.34297144777E-06  1.36054405103E-06
  1.37834658948E-06  1.39638207178E-06  1.41465354597E-06  1.43316409998E-06
  1.45191686213E-06  1.47091500169E-06  1.49016172938E-06  1.50966029796E-06
  1.52941400271E-06  1.54942618208E-06  1.56970021815E-06  1.59023953730E-06
  1.61104761072E-06  1.63212795502E-06  1.65348413282E-06  1.67511975338E-06
  1.69703847317E-06  1.71924399649E-06  1.74174007614E-06  1.76453051402E-06
  1.78761916174E-06  1.81100992137E-06  1.83470674597E-06  1.85871364039E-06
  1.88303466183E-06  1.90767392062E-06  1.93263558084E-06  1.95792386107E-06
  1.98354303509E-06  2.00949743260E-06  2.03579143997E-06  2.06242950093E-06
  2.08941611739E-06  2.11675585015E-06  2.14445331968E-06  2.17251320693E-06
  2.20094025408E-06  2.22973926537E-06  2.25891510790E-06  2.28847271247E-06
  2.31841707437E-06  2.34875325427E-06  2.37948637906E-06  2.41062164272E-06
  2.44216430717E-06  2.47411970320E-06  2.50649323135E-06  2.53929036282E-06
  2.57251664040E-06  2.60617767942E-06  2.64027916867E-06  2.67482687139E-06
  2.70982662621E-06  2.74528434818E-06  2.78120602974E-06  2.81759774174E-06
  2.85446563447E-06  2.89181593868E-06  2.92965496666E-06  2.96798911331E-06
  3.00682485719E-06  3.04616876162E-06  3.08602747582E-06  3.12640773601E-06
  3.16731636655E-06  3.20876028109E-06  3.25074648376E-06  3.29328207032E-06
  3.33637422939E-06  3.38003024364E-06  3.42425749105E-06  3.46906344613E-06
  3.51445568118E-06  3.56044186761E-06  3.60702977719E-06  3.65422728339E-06
  3.70204236269E-06  3.75048309597E-06  3.79955766982E-06  3.84927437795E-06
  3.89964162262E-06  3.95066791600E-06  4.00236188167E-06  4.05473225601E-06
  4.10778788976E-06  4.16153774944E-06  4.21599091891E-06  4.27115660087E-06
  4.32704411847E-06  4.38366291682E-06  4.44102256463E-06  4.49913275583E-06
  4.55800331118E-06  4.61764417993E-06  4.67806544154E-06  4.73927730734E-06
  4.80129012229E-06  4.86411436670E-06  4.92776065801E-06  4.99223975260E-06
  5.05756254759E-06  5.12374008269E-06  5.19078354206E-06  5.25870425620E-06
  5.32751370387E-06  5.39722351405E-06  5.46784546784E-06  5.53939150053E-06
  5.61187370357E-06  5.68530432662E-06  5.75969577963E-06  5.83506063494E-06
  5.91141162939E-06  5.98876166647E-06  6.06712381852E-06  6.14651132894E-06
  6.22693761441E-06  6.30841626715E-06  6.39096105726E-06  6.47458593499E-06
  6.55930503316E-06  6.64513266949E-06  6.73208334906E-06  6.82017176674E-06
  6.90941280968E-06  6.99982155983E-06  7.09141329648E-06  7.18420349886E-06
  7.27820784873E-06  7.37344223304E-06  7.46992274665E-06  7.56766569498E-06
  7.66668759682E-06  7.76700518711E-06  7.86863541977E-06  7.97159547054E-06
  8.07590273992E-06  8.18157485608E-06  8.28862967787E-06  8.39708529780E-06
  8.50696004513E-06  8.61827248895E-06  8.73104144134E-06  8.84528596051E-06
  8.96102535407E-06  9.07827918223E-06  9.19706726119E-06  9.31740966640E-06
  9.43932673602E-06  9.56283907433E-06  9.68796755520E-06  9.81473332564E-06
  9.94315780938E-06  1.00732627105E-05  1.02050700169E-05  1.03386020045E-05
  1.04738812404E-05  1.06109305872E-05  1.07497732065E-05  1.08904325630E-05
  1.10329324286E-05  1.11772968860E-05  1.13235503332E-05  1.14717174874E-05
  1.16218233891E-05  1.17738934066E-05  1.19279532401E-05  1.20840289261E-05
  1.22421468418E-05  1.24023337094E-05  1.25646166010E-05  1.27290229426E-05
  1.28955805195E-05  1.30643174801E-05  1.32352623415E-05  1.34084439937E-05
  1.35838917048E-05  1.37616351260E-05  1.39417042963E-05  1.41241296478E-05
  1.43089420108E-05  1.44961726191E-05  1.46858531150E-05  1.48780155551E-05
  1.50726924152E-05  1.52699165962E-05  1.54697214295E-05  1.56721406825E-05
  1.58772085645E-05  1.60849597326E-05  1.62954292972E-05  1.65086528282E-05
  1.67246663607E-05  1.69435064017E-05  1.71652099355E-05  1.73898144308E-05
  1.76173578460E-05  1.78478786366E-05  1.80814157613E-05  1.83180086882E-05
  1.85576974021E-05  1.88005224112E-05  1.90465247532E-05  1.92957460033E-05
  1.95482282803E-05  1.98040142545E-05  2.00631471542E-05  2.03256707735E-05
  2.05916294796E-05  2.08610682201E-05  2.11340325307E-05  2.14105685432E-05
  2.16907229926E-05  2.19745432259E-05  2.22620772093E-05  2.25533735368E-05
  2.28484814380E-05  2.31474507870E-05  2.34503321103E-05  2.37571765955E-05
  2.40680361001E-05  2.43829631601E-05  2.47020109988E-05  2.50252335363E-05
  2.53526853978E-05  2.56844219234E-05  2.60204991775E-05  2.63609739579E-05
  2.67059038056E-05  2.70553470146E-05  2.74093626417E-05  2.77680105162E-05
  2.81313512507E-05  2.84994462505E-05  2.88723577245E-05  2.92501486957E-05
  2.96328830116E-05  3.00206253553E-05  3.04134412561E-05  3.08113971009E-05
  3.12145601452E-05  3.16229985243E-05  3.20367812656E-05  3.24559782991E-05
  3.28806604701E-05  3.33108995511E-05  3.37467682533E-05  3.41883402398E-05
  3.46356901371E-05  3.50888935484E-05  3.55480270663E-05  3.60131682854E-05
  3.64843958156E-05  3.69617892955E-05  3.74454294058E-05  3.79353978828E-05
  3.84317775324E-05  3.89346522438E-05  3.94441070041E-05  3.99602279124E-05
  4.04831021943E-05  4.10128182168E-05  4.15494655032E-05  4.20931347482E-05