<UPF version="2.0.1">
  <PP_INFO>

 This pseudopotential file has been produced using the code
 ONCVPSP  (Optimized Norm-Conservinng Vanderbilt PSeudopotential)
 scalar-relativistic version 2.1.1, 03/26/2014 by D. R. Hamann
 The code is available through a link at URL www.mat-simresearch.com.
 Documentation with the package provides a full discription of the
 input data below.


 While it is not required under the terms of the GNU GPL, it is
 suggested that you cite D. R. Hamann, Phys. Rev. B 88, 085117 (2013)
 in any publication using these pseudopotentials.


 Copyright 2015 The Regents of the University of California
 
 This work is licensed under the Creative Commons Attribution-ShareAlike 
 4.0 International License. To view a copy of this license, visit 
 http://creativecommons.org/licenses/by-sa/4.0/ or send a letter to 
 Creative Commons, PO Box 1866, Mountain View, CA 94042, USA.
 
 This pseudopotential is part of the Schlipf-Gygi norm-conserving 
 pseudopotential library. Its construction parameters were tuned to 
 reproduce materials of a training set with very high accuracy and 
 should be suitable as a general purpose pseudopotential to treat a 
 variety of different compounds. For details of the construction and 
 testing of the pseudopotential please refer to:
 
 [insert reference to paper here]
 
 We kindly ask that you include this reference in all publications 
 associated to this pseudopotential.


    <PP_INPUTFILE>
# ATOM AND REFERENCE CONFIGURATION
# atsym  z    nc    nv    iexc   psfile
  N  7.00     1     2     4      upf
#
#   n    l    f        energy (Ha)
    1    0    2.00
    2    0    2.00
    2    1    3.00
#
# PSEUDOPOTENTIAL AND OPTIMIZATION
# lmax
    1
#
#   l,   rc,     ep,   ncon, nbas, qcut
    0   1.60510  -0.68291    5    8   8.23432
    1   1.51217  -0.26055    5    8   9.22597
#
# LOCAL POTENTIAL
# lloc, lpopt,  rc(5),   dvloc0
    4    5   1.10894      0.00000
#
# VANDERBILT-KLEINMAN-BYLANDER PROJECTORs
# l, nproj, debl
    0    2   2.24547
    1    2   2.62189
#
# MODEL CORE CHARGE
# icmod, fcfact
    0   0.00000
#
# LOG DERIVATIVE ANALYSIS
# epsh1, epsh2, depsh
   -5.00    3.00    0.02
#
# OUTPUT GRID
# rlmax, drl
    6.00    0.01
#
# TEST CONFIGURATIONS
# ncnf
    0
# nvcnf
#   n    l    f
    </PP_INPUTFILE>
  </PP_INFO>
  <!--                               -->
  <!-- END OF HUMAN READABLE SECTION -->
  <!--                               -->
    <PP_HEADER
       generated="Generated using ONCVPSP code by D. R. Hamann"
       author="Martin Schlipf and Francois Gygi"
       date="150105"
       comment=""
       element="N "
       pseudo_type="NC"
       relativistic="scalar"
       is_ultrasoft="F"
       is_paw="F"
       is_coulomb="F"
       has_so="F"
       has_wfc="F"
       has_gipaw="F"
       core_correction="F"
       functional="PBE"
       z_valence="    5.00"
       total_psenergy="  -9.64459397409E+00"
       rho_cutoff="   6.01000000000E+00"
       l_max="1"
       l_local="-1"
       mesh_size="   602"
       number_of_wfc="0"
       number_of_proj="4"/>
 <PP_MESH>
   <PP_R type="real"  size=" 602" columns="8">
    0.0000    0.0100    0.0200    0.0300    0.0400    0.0500    0.0600    0.0700
    0.0800    0.0900    0.1000    0.1100    0.1200    0.1300    0.1400    0.1500
    0.1600    0.1700    0.1800    0.1900    0.2000    0.2100    0.2200    0.2300
    0.2400    0.2500    0.2600    0.2700    0.2800    0.2900    0.3000    0.3100
    0.3200    0.3300    0.3400    0.3500    0.3600    0.3700    0.3800    0.3900
    0.4000    0.4100    0.4200    0.4300    0.4400    0.4500    0.4600    0.4700
    0.4800    0.4900    0.5000    0.5100    0.5200    0.5300    0.5400    0.5500
    0.5600    0.5700    0.5800    0.5900    0.6000    0.6100    0.6200    0.6300
    0.6400    0.6500    0.6600    0.6700    0.6800    0.6900    0.7000    0.7100
    0.7200    0.7300    0.7400    0.7500    0.7600    0.7700    0.7800    0.7900
    0.8000    0.8100    0.8200    0.8300    0.8400    0.8500    0.8600    0.8700
    0.8800    0.8900    0.9000    0.9100    0.9200    0.9300    0.9400    0.9500
    0.9600    0.9700    0.9800    0.9900    1.0000    1.0100    1.0200    1.0300
    1.0400    1.0500    1.0600    1.0700    1.0800    1.0900    1.1000    1.1100
    1.1200    1.1300    1.1400    1.1500    1.1600    1.1700    1.1800    1.1900
    1.2000    1.2100    1.2200    1.2300    1.2400    1.2500    1.2600    1.2700
    1.2800    1.2900    1.3000    1.3100    1.3200    1.3300    1.3400    1.3500
    1.3600    1.3700    1.3800    1.3900    1.4000    1.4100    1.4200    1.4300
    1.4400    1.4500    1.4600    1.4700    1.4800    1.4900    1.5000    1.5100
    1.5200    1.5300    1.5400    1.5500    1.5600    1.5700    1.5800    1.5900
    1.6000    1.6100    1.6200    1.6300    1.6400    1.6500    1.6600    1.6700
    1.6800    1.6900    1.7000    1.7100    1.7200    1.7300    1.7400    1.7500
    1.7600    1.7700    1.7800    1.7900    1.8000    1.8100    1.8200    1.8300
    1.8400    1.8500    1.8600    1.8700    1.8800    1.8900    1.9000    1.9100
    1.9200    1.9300    1.9400    1.9500    1.9600    1.9700    1.9800    1.9900
    2.0000    2.0100    2.0200    2.0300    2.0400    2.0500    2.0600    2.0700
    2.0800    2.0900    2.1000    2.1100    2.1200    2.1300    2.1400    2.1500
    2.1600    2.1700    2.1800    2.1900    2.2000    2.2100    2.2200    2.2300
    2.2400    2.2500    2.2600    2.2700    2.2800    2.2900    2.3000    2.3100
    2.3200    2.3300    2.3400    2.3500    2.3600    2.3700    2.3800    2.3900
    2.4000    2.4100    2.4200    2.4300    2.4400    2.4500    2.4600    2.4700
    2.4800    2.4900    2.5000    2.5100    2.5200    2.5300    2.5400    2.5500
    2.5600    2.5700    2.5800    2.5900    2.6000    2.6100    2.6200    2.6300
    2.6400    2.6500    2.6600    2.6700    2.6800    2.6900    2.7000    2.7100
    2.7200    2.7300    2.7400    2.7500    2.7600    2.7700    2.7800    2.7900
    2.8000    2.8100    2.8200    2.8300    2.8400    2.8500    2.8600    2.8700
    2.8800    2.8900    2.9000    2.9100    2.9200    2.9300    2.9400    2.9500
    2.9600    2.9700    2.9800    2.9900    3.0000    3.0100    3.0200    3.0300
    3.0400    3.0500    3.0600    3.0700    3.0800    3.0900    3.1000    3.1100
    3.1200    3.1300    3.1400    3.1500    3.1600    3.1700    3.1800    3.1900
    3.2000    3.2100    3.2200    3.2300    3.2400    3.2500    3.2600    3.2700
    3.2800    3.2900    3.3000    3.3100    3.3200    3.3300    3.3400    3.3500
    3.3600    3.3700    3.3800    3.3900    3.4000    3.4100    3.4200    3.4300
    3.4400    3.4500    3.4600    3.4700    3.4800    3.4900    3.5000    3.5100
    3.5200    3.5300    3.5400    3.5500    3.5600    3.5700    3.5800    3.5900
    3.6000    3.6100    3.6200    3.6300    3.6400    3.6500    3.6600    3.6700
    3.6800    3.6900    3.7000    3.7100    3.7200    3.7300    3.7400    3.7500
    3.7600    3.7700    3.7800    3.7900    3.8000    3.8100    3.8200    3.8300
    3.8400    3.8500    3.8600    3.8700    3.8800    3.8900    3.9000    3.9100
    3.9200    3.9300    3.9400    3.9500    3.9600    3.9700    3.9800    3.9900
    4.0000    4.0100    4.0200    4.0300    4.0400    4.0500    4.0600    4.0700
    4.0800    4.0900    4.1000    4.1100    4.1200    4.1300    4.1400    4.1500
    4.1600    4.1700    4.1800    4.1900    4.2000    4.2100    4.2200    4.2300
    4.2400    4.2500    4.2600    4.2700    4.2800    4.2900    4.3000    4.3100
    4.3200    4.3300    4.3400    4.3500    4.3600    4.3700    4.3800    4.3900
    4.4000    4.4100    4.4200    4.4300    4.4400    4.4500    4.4600    4.4700
    4.4800    4.4900    4.5000    4.5100    4.5200    4.5300    4.5400    4.5500
    4.5600    4.5700    4.5800    4.5900    4.6000    4.6100    4.6200    4.6300
    4.6400    4.6500    4.6600    4.6700    4.6800    4.6900    4.7000    4.7100
    4.7200    4.7300    4.7400    4.7500    4.7600    4.7700    4.7800    4.7900
    4.8000    4.8100    4.8200    4.8300    4.8400    4.8500    4.8600    4.8700
    4.8800    4.8900    4.9000    4.9100    4.9200    4.9300    4.9400    4.9500
    4.9600    4.9700    4.9800    4.9900    5.0000    5.0100    5.0200    5.0300
    5.0400    5.0500    5.0600    5.0700    5.0800    5.0900    5.1000    5.1100
    5.1200    5.1300    5.1400    5.1500    5.1600    5.1700    5.1800    5.1900
    5.2000    5.2100    5.2200    5.2300    5.2400    5.2500    5.2600    5.2700
    5.2800    5.2900    5.3000    5.3100    5.3200    5.3300    5.3400    5.3500
    5.3600    5.3700    5.3800    5.3900    5.4000    5.4100    5.4200    5.4300
    5.4400    5.4500    5.4600    5.4700    5.4800    5.4900    5.5000    5.5100
    5.5200    5.5300    5.5400    5.5500    5.5600    5.5700    5.5800    5.5900
    5.6000    5.6100    5.6200    5.6300    5.6400    5.6500    5.6600    5.6700
    5.6800    5.6900    5.7000    5.7100    5.7200    5.7300    5.7400    5.7500
    5.7600    5.7700    5.7800    5.7900    5.8000    5.8100    5.8200    5.8300
    5.8400    5.8500    5.8600    5.8700    5.8800    5.8900    5.9000    5.9100
    5.9200    5.9300    5.9400    5.9500    5.9600    5.9700    5.9800    5.9900
    6.0000    6.0100
   </PP_R>
   <PP_RAB type="real"  size=" 602" columns="8">
    0.0100    0.0100    0.0100    0.0100    0.0100    0.0100    0.0100    0.0100
    0.0100    0.0100    0.0100    0.0100    0.0100    0.0100    0.0100    0.0100
    0.0100    0.0100    0.0100    0.0100    0.0100    0.0100    0.0100    0.0100
    0.0100    0.0100    0.0100    0.0100    0.0100    0.0100    0.0100    0.0100
    0.0100    0.0100    0.0100    0.0100    0.0100    0.0100    0.0100    0.0100
    0.0100    0.0100    0.0100    0.0100    0.0100    0.0100    0.0100    0.0100
    0.0100    0.0100    0.0100    0.0100    0.0100    0.0100    0.0100    0.0100
    0.0100    0.0100    0.0100    0.0100    0.0100    0.0100    0.0100    0.0100
    0.0100    0.0100    0.0100    0.0100    0.0100    0.0100    0.0100    0.0100
    0.0100    0.0100    0.0100    0.0100    0.0100    0.0100    0.0100    0.0100
    0.0100    0.0100    0.0100    0.0100    0.0100    0.0100    0.0100    0.0100
    0.0100    0.0100    0.0100    0.0100    0.0100    0.0100    0.0100    0.0100
    0.0100    0.0100    0.0100    0.0100    0.0100    0.0100    0.0100    0.0100
    0.0100    0.0100    0.0100    0.0100    0.0100    0.0100    0.0100    0.0100
    0.0100    0.0100    0.0100    0.0100    0.0100    0.0100    0.0100    0.0100
    0.0100    0.0100    0.0100    0.0100    0.0100    0.0100    0.0100    0.0100
    0.0100    0.0100    0.0100    0.0100    0.0100    0.0100    0.0100    0.0100
    0.0100    0.0100    0.0100    0.0100    0.0100    0.0100    0.0100    0.0100
    0.0100    0.0100    0.0100    0.0100    0.0100    0.0100    0.0100    0.0100
    0.0100    0.0100    0.0100    0.0100    0.0100    0.0100    0.0100    0.0100
    0.0100    0.0100    0.0100    0.0100    0.0100    0.0100    0.0100    0.0100
    0.0100    0.0100    0.0100    0.0100    0.0100    0.0100    0.0100    0.0100
    0.0100    0.0100    0.0100    0.0100    0.0100    0.0100    0.0100    0.0100
    0.0100    0.0100    0.0100    0.0100    0.0100    0.0100    0.0100    0.0100
    0.0100    0.0100    0.0100    0.0100    0.0100    0.0100    0.0100    0.0100
    0.0100    0.0100    0.0100    0.0100    0.0100    0.0100    0.0100    0.0100
    0.0100    0.0100    0.0100    0.0100    0.0100    0.0100    0.0100    0.0100
    0.0100    0.0100    0.0100    0.0100    0.0100    0.0100    0.0100    0.0100
    0.0100    0.0100    0.0100    0.0100    0.0100    0.0100    0.0100    0.0100
    0.0100    0.0100    0.0100    0.0100    0.0100    0.0100    0.0100    0.0100
    0.0100    0.0100    0.0100    0.0100    0.0100    0.0100    0.0100    0.0100
    0.0100    0.0100    0.0100    0.0100    0.0100    0.0100    0.0100    0.0100
    0.0100    0.0100    0.0100    0.0100    0.0100    0.0100    0.0100    0.0100
    0.0100    0.0100    0.0100    0.0100    0.0100    0.0100    0.0100    0.0100
    0.0100    0.0100    0.0100    0.0100    0.0100    0.0100    0.0100    0.0100
    0.0100    0.0100    0.0100    0.0100    0.0100    0.0100    0.0100    0.0100
    0.0100    0.0100    0.0100    0.0100    0.0100    0.0100    0.0100    0.0100
    0.0100    0.0100    0.0100    0.0100    0.0100    0.0100    0.0100    0.0100
    0.0100    0.0100    0.0100    0.0100    0.0100    0.0100    0.0100    0.0100
    0.0100    0.0100    0.0100    0.0100    0.0100    0.0100    0.0100    0.0100
    0.0100    0.0100    0.0100    0.0100    0.0100    0.0100    0.0100    0.0100
    0.0100    0.0100    0.0100    0.0100    0.0100    0.0100    0.0100    0.0100
    0.0100    0.0100    0.0100    0.0100    0.0100    0.0100    0.0100    0.0100
    0.0100    0.0100    0.0100    0.0100    0.0100    0.0100    0.0100    0.0100
    0.0100    0.0100    0.0100    0.0100    0.0100    0.0100    0.0100    0.0100
    0.0100    0.0100    0.0100    0.0100    0.0100    0.0100    0.0100    0.0100
    0.0100    0.0100    0.0100    0.0100    0.0100    0.0100    0.0100    0.0100
    0.0100    0.0100    0.0100    0.0100    0.0100    0.0100    0.0100    0.0100
    0.0100    0.0100    0.0100    0.0100    0.0100    0.0100    0.0100    0.0100
    0.0100    0.0100    0.0100    0.0100    0.0100    0.0100    0.0100    0.0100
    0.0100    0.0100    0.0100    0.0100    0.0100    0.0100    0.0100    0.0100
    0.0100    0.0100    0.0100    0.0100    0.0100    0.0100    0.0100    0.0100
    0.0100    0.0100    0.0100    0.0100    0.0100    0.0100    0.0100    0.0100
    0.0100    0.0100    0.0100    0.0100    0.0100    0.0100    0.0100    0.0100
    0.0100    0.0100    0.0100    0.0100    0.0100    0.0100    0.0100    0.0100
    0.0100    0.0100    0.0100    0.0100    0.0100    0.0100    0.0100    0.0100
    0.0100    0.0100    0.0100    0.0100    0.0100    0.0100    0.0100    0.0100
    0.0100    0.0100    0.0100    0.0100    0.0100    0.0100    0.0100    0.0100
    0.0100    0.0100    0.0100    0.0100    0.0100    0.0100    0.0100    0.0100
    0.0100    0.0100    0.0100    0.0100    0.0100    0.0100    0.0100    0.0100
    0.0100    0.0100    0.0100    0.0100    0.0100    0.0100    0.0100    0.0100
    0.0100    0.0100    0.0100    0.0100    0.0100    0.0100    0.0100    0.0100
    0.0100    0.0100    0.0100    0.0100    0.0100    0.0100    0.0100    0.0100
    0.0100    0.0100    0.0100    0.0100    0.0100    0.0100    0.0100    0.0100
    0.0100    0.0100    0.0100    0.0100    0.0100    0.0100    0.0100    0.0100
    0.0100    0.0100    0.0100    0.0100    0.0100    0.0100    0.0100    0.0100
    0.0100    0.0100    0.0100    0.0100    0.0100    0.0100    0.0100    0.0100
    0.0100    0.0100    0.0100    0.0100    0.0100    0.0100    0.0100    0.0100
    0.0100    0.0100    0.0100    0.0100    0.0100    0.0100    0.0100    0.0100
    0.0100    0.0100    0.0100    0.0100    0.0100    0.0100    0.0100    0.0100
    0.0100    0.0100    0.0100    0.0100    0.0100    0.0100    0.0100    0.0100
    0.0100    0.0100    0.0100    0.0100    0.0100    0.0100    0.0100    0.0100
    0.0100    0.0100    0.0100    0.0100    0.0100    0.0100    0.0100    0.0100
    0.0100    0.0100    0.0100    0.0100    0.0100    0.0100    0.0100    0.0100
    0.0100    0.0100    0.0100    0.0100    0.0100    0.0100    0.0100    0.0100
    0.0100    0.0100
   </PP_RAB>
 </PP_MESH>
  <PP_LOCAL type="real"  size=" 602" columns="4">
   -1.9590615814E+01   -2.0800622818E+01   -2.1776813264E+01   -2.2400871518E+01
   -2.2554481947E+01   -2.2418510095E+01   -2.2165610854E+01   -2.1895241663E+01
   -2.1649447316E+01   -2.1438593468E+01   -2.1259394462E+01   -2.1104401343E+01
   -2.0966054342E+01   -2.0838032831E+01   -2.0715483540E+01   -2.0594869359E+01
   -2.0473736013E+01   -2.0350494929E+01   -2.0224242585E+01   -2.0094611961E+01
   -1.9961646849E+01   -1.9825692764E+01   -1.9687300740E+01   -1.9547143939E+01
   -1.9405947675E+01   -1.9264433836E+01   -1.9123279975E+01   -1.8983092072E+01
   -1.8844389338E+01   -1.8707598253E+01   -1.8573053146E+01   -1.8441000615E+01
   -1.8311605590E+01   -1.8184957195E+01   -1.8061073653E+01   -1.7939905877E+01
   -1.7821339294E+01   -1.7705195307E+01   -1.7591232663E+01   -1.7479149346E+01
   -1.7368587051E+01   -1.7259138062E+01   -1.7150355505E+01   -1.7041767047E+01
   -1.6932891618E+01   -1.6823258242E+01   -1.6712425591E+01   -1.6600000634E+01
   -1.6485654382E+01   -1.6369134710E+01   -1.6250272976E+01   -1.6128985308E+01
   -1.6005269391E+01   -1.5879197150E+01   -1.5750901831E+01   -1.5620566566E+01
   -1.5488409100E+01   -1.5354669226E+01   -1.5219596379E+01   -1.5083439715E+01
   -1.4946440360E+01   -1.4808825209E+01   -1.4670804126E+01   -1.4532567075E+01
   -1.4394284030E+01   -1.4256105817E+01   -1.4118164488E+01   -1.3980575513E+01
   -1.3843439711E+01   -1.3706845252E+01   -1.3570869023E+01   -1.3435579021E+01
   -1.3301035748E+01   -1.3167293626E+01   -1.3034402228E+01   -1.2902407215E+01
   -1.2771351239E+01   -1.2641274624E+01   -1.2512215873E+01   -1.2384212071E+01
   -1.2257299186E+01   -1.2131512269E+01   -1.2006885598E+01   -1.1883452742E+01
   -1.1761246592E+01   -1.1640299339E+01   -1.1520642426E+01   -1.1402306477E+01
   -1.1285321197E+01   -1.1169715267E+01   -1.1055516217E+01   -1.0942750300E+01
   -1.0831442350E+01   -1.0721615642E+01   -1.0613291744E+01   -1.0506490373E+01
   -1.0401229300E+01   -1.0297524066E+01   -1.0195387904E+01   -1.0094831607E+01
   -9.9958633603E+00   -9.8984885961E+00   -9.8027098541E+00   -9.7085268293E+00
   -9.6159356052E+00   -9.5249290806E+00   -9.4354966559E+00   -9.3476240954E+00
   -9.2612937883E+00   -9.1764833939E+00   -9.0931667432E+00   -9.0113134925E+00
   -8.9308897078E+00   -8.8518596963E+00   -8.7741893667E+00   -8.6978457847E+00
   -8.6227971012E+00   -8.5490129154E+00   -8.4764637986E+00   -8.4051212127E+00
   -8.3349575432E+00   -8.2659462498E+00   -8.1980614390E+00   -8.1312777960E+00
   -8.0655710396E+00   -8.0009173375E+00   -7.9372933022E+00   -7.8746763668E+00
   -7.8130443530E+00   -7.7523753984E+00   -7.6926483648E+00   -7.6338423997E+00
   -7.5759369302E+00   -7.5189120523E+00   -7.4627480426E+00   -7.4074255622E+00
   -7.3529258283E+00   -7.2992301809E+00   -7.2463205706E+00   -7.1941793041E+00
   -7.1427888893E+00   -7.0921326357E+00   -7.0421938988E+00   -6.9929567412E+00
   -6.9444056377E+00   -6.8965253096E+00   -6.8493013985E+00   -6.8027194527E+00
   -6.7567660830E+00   -6.7114279590E+00   -6.6666923979E+00   -6.6225473037E+00
   -6.5789807415E+00   -6.5359820248E+00   -6.4935403387E+00   -6.4516458216E+00
   -6.4102884115E+00   -6.3694580135E+00   -6.3291446104E+00   -6.2893386452E+00
   -6.2500305336E+00   -6.2112107621E+00   -6.1728701764E+00   -6.1349999240E+00
   -6.0975914648E+00   -6.0606364863E+00   -6.0241268312E+00   -5.9880543042E+00
   -5.9524111783E+00   -5.9171897948E+00   -5.8823827948E+00   -5.8479828334E+00
   -5.8139828787E+00   -5.7803759427E+00   -5.7471552912E+00   -5.7143142815E+00
   -5.6818464471E+00   -5.6497454845E+00   -5.6180051668E+00   -5.5866195240E+00
   -5.5555825434E+00   -5.5248885817E+00   -5.4945318182E+00   -5.4645069244E+00
   -5.4348082640E+00   -5.4054307662E+00   -5.3763690762E+00   -5.3476182573E+00
   -5.3191732702E+00   -5.2910292880E+00   -5.2631815863E+00   -5.2356254285E+00
   -5.2083563986E+00   -5.1813698407E+00   -5.1546615849E+00   -5.1282271973E+00
   -5.1020625823E+00   -5.0761636041E+00   -5.0505261967E+00   -5.0251465278E+00
   -5.0000205539E+00   -4.9751446719E+00   -4.9505150404E+00   -4.9261280798E+00
   -4.9019802417E+00   -4.8780679276E+00   -4.8543878501E+00   -4.8309364958E+00
   -4.8077106729E+00   -4.7847071233E+00   -4.7619226060E+00   -4.7393541288E+00
   -4.7169984900E+00   -4.6948528013E+00   -4.6729141023E+00   -4.6511794296E+00
   -4.6296460723E+00   -4.6083111251E+00   -4.5871719295E+00   -4.5662258300E+00
   -4.5454700717E+00   -4.5249022113E+00   -4.5045196292E+00   -4.4843198308E+00
   -4.4643004488E+00   -4.4444589467E+00   -4.4247930660E+00   -4.4053004879E+00
   -4.3859788263E+00   -4.3668259695E+00   -4.3478396511E+00   -4.3290176856E+00
   -4.3103580340E+00   -4.2918585070E+00   -4.2735171000E+00   -4.2553318426E+00
   -4.2373006253E+00   -4.2194216036E+00   -4.2016928663E+00   -4.1841124091E+00
   -4.1666785037E+00   -4.1493892977E+00   -4.1322429191E+00   -4.1152377105E+00
   -4.0983718928E+00   -4.0816437113E+00   -4.0650515776E+00   -4.0485937867E+00
   -4.0322686858E+00   -4.0160747552E+00   -4.0000103642E+00   -3.9840739473E+00
   -3.9682640534E+00   -3.9525791262E+00   -3.9370176742E+00   -3.9215783148E+00
   -3.9062595660E+00   -3.8910599979E+00   -3.8759782964E+00   -3.8610130541E+00
   -3.8461628903E+00   -3.8314265598E+00   -3.8168027298E+00   -3.8022900585E+00
   -3.7878873684E+00   -3.7735934023E+00   -3.7594068468E+00   -3.7453265921E+00
   -3.7313514484E+00   -3.7174801459E+00   -3.7037116176E+00   -3.6900447367E+00
   -3.6764783070E+00   -3.6630112654E+00   -3.6496425576E+00   -3.6363710625E+00
   -3.6231957119E+00   -3.6101155229E+00   -3.5971294511E+00   -3.5842364160E+00
   -3.5714355040E+00   -3.5587257322E+00   -3.5461060511E+00   -3.5335755654E+00
   -3.5211333534E+00   -3.5087784411E+00   -3.4965099016E+00   -3.4843268865E+00
   -3.4722284999E+00   -3.4602137785E+00   -3.4482819431E+00   -3.4364321418E+00
   -3.4246634778E+00   -3.4129751328E+00   -3.4013663281E+00   -3.3898362454E+00
   -3.3783840144E+00   -3.3670089271E+00   -3.3557102092E+00   -3.3444870459E+00
   -3.3333386874E+00   -3.3222644299E+00   -3.3112635354E+00   -3.3003351991E+00
   -3.2894787783E+00   -3.2786935722E+00   -3.2679788530E+00   -3.2573339043E+00
   -3.2467581018E+00   -3.2362507744E+00   -3.2258112052E+00   -3.2154387656E+00
   -3.2051328393E+00   -3.1948927864E+00   -3.1847179054E+00   -3.1746076426E+00
   -3.1645613916E+00   -3.1545785290E+00   -3.1446584113E+00   -3.1348005088E+00
   -3.1250042397E+00   -3.1152689968E+00   -3.1055941955E+00   -3.0959793202E+00
   -3.0864238164E+00   -3.0769270951E+00   -3.0674886211E+00   -3.0581078947E+00
   -3.0487843871E+00   -3.0395175297E+00   -3.0303068279E+00   -3.0211517992E+00
   -3.0120519397E+00   -3.0030067027E+00   -2.9940156256E+00   -2.9850782454E+00
   -2.9761940814E+00   -2.9673626110E+00   -2.9585833953E+00   -2.9498559924E+00
   -2.9411799443E+00   -2.9325547534E+00   -2.9239799972E+00   -2.9154552570E+00
   -2.9069800960E+00   -2.8985540433E+00   -2.8901766857E+00   -2.8818476293E+00
   -2.8735664574E+00   -2.8653327274E+00   -2.8571460291E+00   -2.8490059942E+00
   -2.8409122258E+00   -2.8328643108E+00   -2.8248618356E+00   -2.8169044593E+00
   -2.8089918032E+00   -2.8011234856E+00   -2.7932990843E+00   -2.7855182858E+00
   -2.7777807294E+00   -2.7700860541E+00   -2.7624338598E+00   -2.7548238258E+00
   -2.7472556196E+00   -2.7397288973E+00   -2.7322432924E+00   -2.7247984619E+00
   -2.7173941057E+00   -2.7100298957E+00   -2.7027055012E+00   -2.6954205526E+00
   -2.6881747818E+00   -2.6809678760E+00   -2.6737995225E+00   -2.6666693792E+00
   -2.6595771527E+00   -2.6525225634E+00   -2.6455053131E+00   -2.6385250977E+00
   -2.6315815864E+00   -2.6246745348E+00   -2.6178036585E+00   -2.6109686732E+00
   -2.6041692684E+00   -2.5974051739E+00   -2.5906761381E+00   -2.5839818900E+00
   -2.5773221584E+00   -2.5706966301E+00   -2.5641050872E+00   -2.5575472724E+00
   -2.5510229271E+00   -2.5445317791E+00   -2.5380735580E+00   -2.5316480469E+00
   -2.5252549993E+00   -2.5188941689E+00   -2.5125652835E+00   -2.5062681124E+00
   -2.5000024374E+00   -2.4937680237E+00   -2.4875646364E+00   -2.4813920063E+00
   -2.4752499348E+00   -2.4691382048E+00   -2.4630565923E+00   -2.4570048728E+00
   -2.4509827841E+00   -2.4449901514E+00   -2.4390267610E+00   -2.4330923996E+00
   -2.4271868483E+00   -2.4213098662E+00   -2.4154612834E+00   -2.4096408963E+00
   -2.4038485013E+00   -2.3980838876E+00   -2.3923468295E+00   -2.3866371638E+00
   -2.3809546965E+00   -2.3752992333E+00   -2.3696705733E+00   -2.3640685005E+00
   -2.3584928601E+00   -2.3529434671E+00   -2.3474201364E+00   -2.3419226785E+00
   -2.3364508820E+00   -2.3310046021E+00   -2.3255836624E+00   -2.3201878866E+00
   -2.3148170980E+00   -2.3094710854E+00   -2.3041497152E+00   -2.2988528194E+00
   -2.2935802296E+00   -2.2883317778E+00   -2.2831072674E+00   -2.2779065580E+00
   -2.2727294960E+00   -2.2675759210E+00   -2.2624456725E+00   -2.2573385707E+00
   -2.2522544640E+00   -2.2471932143E+00   -2.2421546687E+00   -2.2371386743E+00
   -2.2321450694E+00   -2.2271736871E+00   -2.2222244062E+00   -2.2172970808E+00
   -2.2123915651E+00   -2.2075077135E+00   -2.2026453515E+00   -2.1978043641E+00
   -2.1929846160E+00   -2.1881859683E+00   -2.1834082819E+00   -2.1786514035E+00
   -2.1739151937E+00   -2.1691995375E+00   -2.1645043025E+00   -2.1598293562E+00
   -2.1551745659E+00   -2.1505397703E+00   -2.1459248698E+00   -2.1413297398E+00
   -2.1367542539E+00   -2.1321982859E+00   -2.1276616978E+00   -2.1231443580E+00
   -2.1186461651E+00   -2.1141669984E+00   -2.1097067377E+00   -2.1052652625E+00
   -2.1008424303E+00   -2.0964381390E+00   -2.0920522814E+00   -2.0876847428E+00
   -2.0833354082E+00   -2.0790041618E+00   -2.0746908626E+00   -2.0703954283E+00
   -2.0661177496E+00   -2.0618577170E+00   -2.0576152210E+00   -2.0533901444E+00
   -2.0491823660E+00   -2.0449918021E+00   -2.0408183483E+00   -2.0366619001E+00
   -2.0325223534E+00   -2.0283995916E+00   -2.0242935085E+00   -2.0202040204E+00
   -2.0161310278E+00   -2.0120744312E+00   -2.0080341310E+00   -2.0040100137E+00
   -2.0000019830E+00   -1.9960099571E+00   -1.9920338411E+00   -1.9880735401E+00
   -1.9841289593E+00   -1.9801999896E+00   -1.9762865403E+00   -1.9723885331E+00
   -1.9685058776E+00   -1.9646384834E+00   -1.9607862600E+00   -1.9569491045E+00
   -1.9531269274E+00   -1.9493196559E+00   -1.9455272037E+00   -1.9417494845E+00
   -1.9379864121E+00   -1.9342378914E+00   -1.9305038300E+00   -1.9267841621E+00
   -1.9230788054E+00   -1.9193876777E+00   -1.9157106967E+00   -1.9120477764E+00
   -1.9083988183E+00   -1.9047637645E+00   -1.9011425368E+00   -1.8975350567E+00
   -1.8939412457E+00   -1.8903610256E+00   -1.8867942969E+00   -1.8832410025E+00
   -1.8797010704E+00   -1.8761744260E+00   -1.8726609945E+00   -1.8691607011E+00
   -1.8656734587E+00   -1.8621991957E+00   -1.8587378518E+00   -1.8552893559E+00
   -1.8518536366E+00   -1.8484306227E+00   -1.8450202405E+00   -1.8416224012E+00
   -1.8382370570E+00   -1.8348641402E+00   -1.8315035826E+00   -1.8281553164E+00
   -1.8248192737E+00   -1.8214953729E+00   -1.8181835526E+00   -1.8148837568E+00
   -1.8115959210E+00   -1.8083199801E+00   -1.8050558696E+00   -1.8018035240E+00
   -1.7985628581E+00   -1.7953338312E+00   -1.7921163815E+00   -1.7889104472E+00
   -1.7857159666E+00   -1.7825328779E+00   -1.7793611117E+00   -1.7762006012E+00
   -1.7730513012E+00   -1.7699131529E+00   -1.7667860973E+00   -1.7636700755E+00
   -1.7605650288E+00   -1.7574708851E+00   -1.7543875925E+00   -1.7513151025E+00
   -1.7482533591E+00   -1.7452023062E+00   -1.7421618876E+00   -1.7391320472E+00
   -1.7361127126E+00   -1.7331038418E+00   -1.7301053855E+00   -1.7271172901E+00
   -1.7241395020E+00   -1.7211719678E+00   -1.7182146339E+00   -1.7152674291E+00
   -1.7123303178E+00   -1.7094032509E+00   -1.7064861774E+00   -1.7035790463E+00
   -1.7006818065E+00   -1.6977944071E+00   -1.6949167794E+00   -1.6920488904E+00
   -1.6891906931E+00   -1.6863421389E+00   -1.6835031792E+00   -1.6806737653E+00
   -1.6778538485E+00   -1.6750433642E+00   -1.6722422788E+00   -1.6694505486E+00
   -1.6666681273E+00   -1.6638949686E+00
  </PP_LOCAL>
 <PP_NONLOCAL>
   <PP_BETA.1
       type="real"
       size=" 602"
       columns="4"
       index="1"
       angular_momentum="0"
       cutoff_radius_index=" 164"
       cutoff_radius="    1.6300000000E+00" >
    0.0000000000E+00   -8.3799978758E-02   -1.6739572131E-01   -2.5058347602E-01
   -3.3316046091E-01   -4.1492534943E-01   -4.9567875756E-01   -5.7522373225E-01
   -6.5336624156E-01   -7.2991566646E-01   -8.0468529415E-01   -8.7749281273E-01
   -9.4816080680E-01   -1.0165172531E+00   -1.0823960160E+00   -1.1456373403E+00
   -1.2060883426E+00   -1.2636034969E+00   -1.3180451146E+00   -1.3692838167E+00
   -1.4171989948E+00   -1.4616792613E+00   -1.5026228826E+00   -1.5399381961E+00
   -1.5735440055E+00   -1.6033699548E+00   -1.6293568729E+00   -1.6514570922E+00
   -1.6696347318E+00   -1.6838659469E+00   -1.6941391395E+00   -1.7004551274E+00
   -1.7028272678E+00   -1.7012815376E+00   -1.6958565607E+00   -1.6866035833E+00
   -1.6735864011E+00   -1.6568812243E+00   -1.6365764898E+00   -1.6127726165E+00
   -1.5855816990E+00   -1.5551271458E+00   -1.5215432577E+00   -1.4849747486E+00
   -1.4455762098E+00   -1.4035115187E+00   -1.3589531938E+00   -1.3120816999E+00
   -1.2630847208E+00   -1.2121563356E+00   -1.1594962087E+00   -1.1053087439E+00
   -1.0498021810E+00   -9.9318759247E-01   -9.3567810149E-01   -8.7748771381E-01
   -8.1883051998E-01   -7.5991958760E-01   -7.0096607470E-01   -6.4217812966E-01
   -5.8376016496E-01   -5.2591151569E-01   -4.6882604504E-01   -4.1269075906E-01
   -3.5768518786E-01   -3.0398077716E-01   -2.5173967418E-01   -2.0111428700E-01
   -1.5224667857E-01   -1.0526808467E-01   -6.0297851672E-02   -1.7443523494E-02
    2.3199703037E-02    6.1549288155E-02    9.7535504858E-02    1.3110179780E-01
    1.6220472831E-01    1.9081391820E-01    2.1691201036E-01    2.4049450767E-01
    2.6156953578E-01    2.8015753181E-01    2.9629086175E-01    3.1001336994E-01
    3.2137986392E-01    3.3045553903E-01    3.3731534698E-01    3.4204331310E-01
    3.4473180738E-01    3.4548077449E-01    3.4439692827E-01    3.4159291639E-01
    3.3718646108E-01    3.3129948172E-01    3.2405720558E-01    3.1558727248E-01
    3.0601901095E-01    2.9548215511E-01    2.8410614929E-01    2.7201934076E-01
    2.5934807756E-01    2.4621588388E-01    2.3274269441E-01    2.1904464333E-01