<UPF version="2.0.1">
  <PP_INFO>

 H_ONCV_PBE-1.2.upf

 This pseudopotential file has been produced using the code
 ONCVPSP  (Optimized Norm-Conservinng Vanderbilt PSeudopotential)
 scalar-relativistic version 2.1.1, 03/26/2014 by D. R. Hamann
 The code is available through a link at URL www.mat-simresearch.com.
 Documentation with the package provides a full discription of the
 input data below.


 While it is not required under the terms of the GNU GPL, it is
 suggested that you cite D. R. Hamann, Phys. Rev. B 88, 085117 (2013)
 in any publication using these pseudopotentials.


 Copyright 2015 The Regents of the University of California
 
 This work is licensed under the Creative Commons Attribution-ShareAlike 
 4.0 International License. To view a copy of this license, visit 
 http://creativecommons.org/licenses/by-sa/4.0/ or send a letter to 
 Creative Commons, PO Box 1866, Mountain View, CA 94042, USA.
 
 This pseudopotential is part of the Schlipf-Gygi norm-conserving 
 pseudopotential library. Its construction parameters were tuned to 
 reproduce materials of a training set with very high accuracy and 
 should be suitable as a general purpose pseudopotential to treat a 
 variety of different compounds. For details of the construction and 
 testing of the pseudopotential please refer to:
 
   M. Schlipf and F. Gygi, Computer Physics Communications (2015)
   DOI: 10.1016/j.cpc.2015.05.011
   http://dx.doi.org/10.1016/j.cpc.2015.05.011
   http://www.quantum-simulation.org
 
 We kindly ask that you include this reference in all publications 
 associated to this pseudopotential.


    <PP_INPUTFILE>
# ATOM AND REFERENCE CONFIGURATION
# atsym  z    nc    nv    iexc   psfile
  H  1.00     0     1     4      upf
#
#   n    l    f        energy (Ha)
    1    0    1.00
#
# PSEUDOPOTENTIAL AND OPTIMIZATION
# lmax
    0
#
#   l,   rc,     ep,   ncon, nbas, qcut
    0   1.13748  -0.23860    5    8   9.72141
#
# LOCAL POTENTIAL
# lloc, lpopt,  rc(5),   dvloc0
    4    5   0.49352      0.00000
#
# VANDERBILT-KLEINMAN-BYLANDER PROJECTORs
# l, nproj, debl
    0    2   1.27464
#
# MODEL CORE CHARGE
# icmod, fcfact
    0   0.00000
#
# LOG DERIVATIVE ANALYSIS
# epsh1, epsh2, depsh
   -5.00    3.00    0.02
#
# OUTPUT GRID
# rlmax, drl
    6.00    0.01
#
# TEST CONFIGURATIONS
# ncnf
    0
# nvcnf
#   n    l    f
    </PP_INPUTFILE>
  </PP_INFO>
  <!--                               -->
  <!-- END OF HUMAN READABLE SECTION -->
  <!--                               -->
    <PP_HEADER
       generated="Generated using ONCVPSP code by D. R. Hamann"
       author="Martin Schlipf and Francois Gygi"
       date="150105"
       comment=""
       element="H "
       pseudo_type="NC"
       relativistic="scalar"
       is_ultrasoft="F"
       is_paw="F"
       is_coulomb="F"
       has_so="F"
       has_wfc="F"
       has_gipaw="F"
       core_correction="F"
       functional="PBE"
       z_valence="    1.00"
       total_psenergy="  -4.58772875004E-01"
       rho_cutoff="   6.01000000000E+00"
       l_max="0"
       l_local="-1"
       mesh_size="   602"
       number_of_wfc="0"
       number_of_proj="2"/>
 <PP_MESH>
   <PP_R type="real"  size=" 602" columns="8">
    0.0000    0.0100    0.0200    0.0300    0.0400    0.0500    0.0600    0.0700
    0.0800    0.0900    0.1000    0.1100    0.1200    0.1300    0.1400    0.1500
    0.1600    0.1700    0.1800    0.1900    0.2000    0.2100    0.2200    0.2300
    0.2400    0.2500    0.2600    0.2700    0.2800    0.2900    0.3000    0.3100
    0.3200    0.3300    0.3400    0.3500    0.3600    0.3700    0.3800    0.3900
    0.4000    0.4100    0.4200    0.4300    0.4400    0.4500    0.4600    0.4700
    0.4800    0.4900    0.5000    0.5100    0.5200    0.5300    0.5400    0.5500
    0.5600    0.5700    0.5800    0.5900    0.6000    0.6100    0.6200    0.6300
    0.6400    0.6500    0.6600    0.6700    0.6800    0.6900    0.7000    0.7100
    0.7200    0.7300    0.7400    0.7500    0.7600    0.7700    0.7800    0.7900
    0.8000    0.8100    0.8200    0.8300    0.8400    0.8500    0.8600    0.8700
    0.8800    0.8900    0.9000    0.9100    0.9200    0.9300    0.9400    0.9500
    0.9600    0.9700    0.9800    0.9900    1.0000    1.0100    1.0200    1.0300
    1.0400    1.0500    1.0600    1.0700    1.0800    1.0900    1.1000    1.1100
    1.1200    1.1300    1.1400    1.1500    1.1600    1.1700    1.1800    1.1900
    1.2000    1.2100    1.2200    1.2300    1.2400    1.2500    1.2600    1.2700
    1.2800    1.2900    1.3000    1.3100    1.3200    1.3300    1.3400    1.3500
    1.3600    1.3700    1.3800    1.3900    1.4000    1.4100    1.4200    1.4300
    1.4400    1.4500    1.4600    1.4700    1.4800    1.4900    1.5000    1.5100
    1.5200    1.5300    1.5400    1.5500    1.5600    1.5700    1.5800    1.5900
    1.6000    1.6100    1.6200    1.6300    1.6400    1.6500    1.6600    1.6700
    1.6800    1.6900    1.7000    1.7100    1.7200    1.7300    1.7400    1.7500
    1.7600    1.7700    1.7800    1.7900    1.8000    1.8100    1.8200    1.8300
    1.8400    1.8500    1.8600    1.8700    1.8800    1.8900    1.9000    1.9100
    1.9200    1.9300    1.9400    1.9500    1.9600    1.9700    1.9800    1.9900
    2.0000    2.0100    2.0200    2.0300    2.0400    2.0500    2.0600    2.0700
    2.0800    2.0900    2.1000    2.1100    2.1200    2.1300    2.1400    2.1500
    2.1600    2.1700    2.1800    2.1900    2.2000    2.2100    2.2200    2.2300
    2.2400    2.2500    2.2600    2.2700    2.2800    2.2900    2.3000    2.3100
    2.3200    2.3300    2.3400    2.3500    2.3600    2.3700    2.3800    2.3900
    2.4000    2.4100    2.4200    2.4300    2.4400    2.4500    2.4600    2.4700
    2.4800    2.4900    2.5000    2.5100    2.5200    2.5300    2.5400    2.5500
    2.5600    2.5700    2.5800    2.5900    2.6000    2.6100    2.6200    2.6300
    2.6400    2.6500    2.6600    2.6700    2.6800    2.6900    2.7000    2.7100
    2.7200    2.7300    2.7400    2.7500    2.7600    2.7700    2.7800    2.7900
    2.8000    2.8100    2.8200    2.8300    2.8400    2.8500    2.8600    2.8700
    2.8800    2.8900    2.9000    2.9100    2.9200    2.9300    2.9400    2.9500
    2.9600    2.9700    2.9800    2.9900    3.0000    3.0100    3.0200    3.0300
    3.0400    3.0500    3.0600    3.0700    3.0800    3.0900    3.1000    3.1100
    3.1200    3.1300    3.1400    3.1500    3.1600    3.1700    3.1800    3.1900
    3.2000    3.2100    3.2200    3.2300    3.2400    3.2500    3.2600    3.2700
    3.2800    3.2900    3.3000    3.3100    3.3200    3.3300    3.3400    3.3500
    3.3600    3.3700    3.3800    3.3900    3.4000    3.4100    3.4200    3.4300
    3.4400    3.4500    3.4600    3.4700    3.4800    3.4900    3.5000    3.5100
    3.5200    3.5300    3.5400    3.5500    3.5600    3.5700    3.5800    3.5900
    3.6000    3.6100    3.6200    3.6300    3.6400    3.6500    3.6600    3.6700
    3.6800    3.6900    3.7000    3.7100    3.7200    3.7300    3.7400    3.7500
    3.7600    3.7700    3.7800    3.7900    3.8000    3.8100    3.8200    3.8300
    3.8400    3.8500    3.8600    3.8700    3.8800    3.8900    3.9000    3.9100
    3.9200    3.9300    3.9400    3.9500    3.9600    3.9700    3.9800    3.9900
    4.0000    4.0100    4.0200    4.0300    4.0400    4.0500    4.0600    4.0700
    4.0800    4.0900    4.1000    4.1100    4.1200    4.1300    4.1400    4.1500
    4.1600    4.1700    4.1800    4.1900    4.2000    4.2100    4.2200    4.2300
    4.2400    4.2500    4.2600    4.2700    4.2800    4.2900    4.3000    4.3100
    4.3200    4.3300    4.3400    4.3500    4.3600    4.3700    4.3800    4.3900
    4.4000    4.4100    4.4200    4.4300    4.4400    4.4500    4.4600    4.4700
    4.4800    4.4900    4.5000    4.5100    4.5200    4.5300    4.5400    4.5500
    4.5600    4.5700    4.5800    4.5900    4.6000    4.6100    4.6200    4.6300
    4.6400    4.6500    4.6600    4.6700    4.6800    4.6900    4.7000    4.7100
    4.7200    4.7300    4.7400    4.7500    4.7600    4.7700    4.7800    4.7900
    4.8000    4.8100    4.8200    4.8300    4.8400    4.8500    4.8600    4.8700
    4.8800    4.8900    4.9000    4.9100    4.9200    4.9300    4.9400    4.9500
    4.9600    4.9700    4.9800    4.9900    5.0000    5.0100    5.0200    5.0300
    5.0400    5.0500    5.0600    5.0700    5.0800    5.0900    5.1000    5.1100
    5.1200    5.1300    5.1400    5.1500    5.1600    5.1700    5.1800    5.1900
    5.2000    5.2100    5.2200    5.2300    5.2400    5.2500    5.2600    5.2700
    5.2800    5.2900    5.3000    5.3100    5.3200    5.3300    5.3400    5.3500
    5.3600    5.3700    5.3800    5.3900    5.4000    5.4100    5.4200    5.4300
    5.4400    5.4500    5.4600    5.4700    5.4800    5.4900    5.5000    5.5100
    5.5200    5.5300    5.5400    5.5500    5.5600    5.5700    5.5800    5.5900
    5.6000    5.6100    5.6200    5.6300    5.6400    5.6500    5.6600    5.6700
    5.6800    5.6900    5.7000    5.7100    5.7200    5.7300    5.7400    5.7500
    5.7600    5.7700    5.7800    5.7900    5.8000    5.8100    5.8200    5.8300
    5.8400    5.8500    5.8600    5.8700    5.8800    5.8900    5.9000    5.9100
    5.9200    5.9300    5.9400    5.9500    5.9600    5.9700    5.9800    5.9900
    6.0000    6.0100
   </PP_R>
   <PP_RAB type="real"  size=" 602" columns="8">
    0.0100    0.0100    0.0100    0.0100    0.0100    0.0100    0.0100    0.0100
    0.0100    0.0100    0.0100    0.0100    0.0100    0.0100    0.0100    0.0100
    0.0100    0.0100    0.0100    0.0100    0.0100    0.0100    0.0100    0.0100
    0.0100    0.0100    0.0100    0.0100    0.0100    0.0100    0.0100    0.0100
    0.0100    0.0100    0.0100    0.0100    0.0100    0.0100    0.0100    0.0100
    0.0100    0.0100    0.0100    0.0100    0.0100    0.0100    0.0100    0.0100
    0.0100    0.0100    0.0100    0.0100    0.0100    0.0100    0.0100    0.0100
    0.0100    0.0100    0.0100    0.0100    0.0100    0.0100    0.0100    0.0100
    0.0100    0.0100    0.0100    0.0100    0.0100    0.0100    0.0100    0.0100
    0.0100    0.0100    0.0100    0.0100    0.0100    0.0100    0.0100    0.0100
    0.0100    0.0100    0.0100    0.0100    0.0100    0.0100    0.0100    0.0100
    0.0100    0.0100    0.0100    0.0100    0.0100    0.0100    0.0100    0.0100
    0.0100    0.0100    0.0100    0.0100    0.0100    0.0100    0.0100    0.0100
    0.0100    0.0100    0.0100    0.0100    0.0100    0.0100    0.0100    0.0100
    0.0100    0.0100    0.0100    0.0100    0.0100    0.0100    0.0100    0.0100
    0.0100    0.0100    0.0100    0.0100    0.0100    0.0100    0.0100    0.0100
    0.0100    0.0100    0.0100    0.0100    0.0100    0.0100    0.0100    0.0100
    0.0100    0.0100    0.0100    0.0100    0.0100    0.0100    0.0100    0.0100
    0.0100    0.0100    0.0100    0.0100    0.0100    0.0100    0.0100    0.0100
    0.0100    0.0100    0.0100    0.0100    0.0100    0.0100    0.0100    0.0100
    0.0100    0.0100    0.0100    0.0100    0.0100    0.0100    0.0100    0.0100
    0.0100    0.0100    0.0100    0.0100    0.0100    0.0100    0.0100    0.0100
    0.0100    0.0100    0.0100    0.0100    0.0100    0.0100    0.0100    0.0100
    0.0100    0.0100    0.0100    0.0100    0.0100    0.0100    0.0100    0.0100
    0.0100    0.0100    0.0100    0.0100    0.0100    0.0100    0.0100    0.0100
    0.0100    0.0100    0.0100    0.0100    0.0100    0.0100    0.0100    0.0100
    0.0100    0.0100    0.0100    0.0100    0.0100    0.0100    0.0100    0.0100
    0.0100    0.0100    0.0100    0.0100    0.0100    0.0100    0.0100    0.0100
    0.0100    0.0100    0.0100    0.0100    0.0100    0.0100    0.0100    0.0100
    0.0100    0.0100    0.0100    0.0100    0.0100    0.0100    0.0100    0.0100
    0.0100    0.0100    0.0100    0.0100    0.0100    0.0100    0.0100    0.0100
    0.0100    0.0100    0.0100    0.0100    0.0100    0.0100    0.0100    0.0100
    0.0100    0.0100    0.0100    0.0100    0.0100    0.0100    0.0100    0.0100
    0.0100    0.0100    0.0100    0.0100    0.0100    0.0100    0.0100    0.0100
    0.0100    0.0100    0.0100    0.0100    0.0100    0.0100    0.0100    0.0100
    0.0100    0.0100    0.0100    0.0100    0.0100    0.0100    0.0100    0.0100
    0.0100    0.0100    0.0100    0.0100    0.0100    0.0100    0.0100    0.0100
    0.0100    0.0100    0.0100    0.0100    0.0100    0.0100    0.0100    0.0100
    0.0100    0.0100    0.0100    0.0100    0.0100    0.0100    0.0100    0.0100
    0.0100    0.0100    0.0100    0.0100    0.0100    0.0100    0.0100    0.0100
    0.0100    0.0100    0.0100    0.0100    0.0100    0.0100    0.0100    0.0100
    0.0100    0.0100    0.0100    0.0100    0.0100    0.0100    0.0100    0.0100
    0.0100    0.0100    0.0100    0.0100    0.0100    0.0100    0.0100    0.0100
    0.0100    0.0100    0.0100    0.0100    0.0100    0.0100    0.0100    0.0100
    0.0100    0.0100    0.0100    0.0100    0.0100    0.0100    0.0100    0.0100
    0.0100    0.0100    0.0100    0.0100    0.0100    0.0100    0.0100    0.0100
    0.0100    0.0100    0.0100    0.0100    0.0100    0.0100    0.0100    0.0100
    0.0100    0.0100    0.0100    0.0100    0.0100    0.0100    0.0100    0.0100
    0.0100    0.0100    0.0100    0.0100    0.0100    0.0100    0.0100    0.0100
    0.0100    0.0100    0.0100    0.0100    0.0100    0.0100    0.0100    0.0100
    0.0100    0.0100    0.0100    0.0100    0.0100    0.0100    0.0100    0.0100
    0.0100    0.0100    0.0100    0.0100    0.0100    0.0100    0.0100    0.0100
    0.0100    0.0100    0.0100    0.0100    0.0100    0.0100    0.0100    0.0100
    0.0100    0.0100    0.0100    0.0100    0.0100    0.0100    0.0100    0.0100
    0.0100    0.0100    0.0100    0.0100    0.0100    0.0100    0.0100    0.0100
    0.0100    0.0100    0.0100    0.0100    0.0100    0.0100    0.0100    0.0100
    0.0100    0.0100    0.0100    0.0100    0.0100    0.0100    0.0100    0.0100
    0.0100    0.0100    0.0100    0.0100    0.0100    0.0100    0.0100    0.0100
    0.0100    0.0100    0.0100    0.0100    0.0100    0.0100    0.0100    0.0100
    0.0100    0.0100    0.0100    0.0100    0.0100    0.0100    0.0100    0.0100
    0.0100    0.0100    0.0100    0.0100    0.0100    0.0100    0.0100    0.0100
    0.0100    0.0100    0.0100    0.0100    0.0100    0.0100    0.0100    0.0100
    0.0100    0.0100    0.0100    0.0100    0.0100    0.0100    0.0100    0.0100
    0.0100    0.0100    0.0100    0.0100    0.0100    0.0100    0.0100    0.0100
    0.0100    0.0100    0.0100    0.0100    0.0100    0.0100    0.0100    0.0100
    0.0100    0.0100    0.0100    0.0100    0.0100    0.0100    0.0100    0.0100
    0.0100    0.0100    0.0100    0.0100    0.0100    0.0100    0.0100    0.0100
    0.0100    0.0100    0.0100    0.0100    0.0100    0.0100    0.0100    0.0100
    0.0100    0.0100    0.0100    0.0100    0.0100    0.0100    0.0100    0.0100
    0.0100    0.0100    0.0100    0.0100    0.0100    0.0100    0.0100    0.0100
    0.0100    0.0100    0.0100    0.0100    0.0100    0.0100    0.0100    0.0100
    0.0100    0.0100    0.0100    0.0100    0.0100    0.0100    0.0100    0.0100
    0.0100    0.0100    0.0100    0.0100    0.0100    0.0100    0.0100    0.0100
    0.0100    0.0100    0.0100    0.0100    0.0100    0.0100    0.0100    0.0100
    0.0100    0.0100    0.0100    0.0100    0.0100    0.0100    0.0100    0.0100
    0.0100    0.0100
   </PP_RAB>
 </PP_MESH>
  <PP_LOCAL type="real"  size=" 602" columns="4">
   -9.0601659953e+00   -9.0559266299e+00   -9.0432267667e+00   -9.0221211038e+00
   -8.9927008049e+00   -8.9550934992e+00   -8.9094632813e+00   -8.8560107112e+00
   -8.7949728146e+00   -8.7266230825e+00   -8.6512714714e+00   -8.5692567717e+00
   -8.4809167973e+00   -8.3865961577e+00   -8.2866495257e+00   -8.1814394040e+00
   -8.0713342805e+00   -7.9567071423e+00   -7.8379342970e+00   -7.7153944473e+00
   -7.5894679553e+00   -7.4605362378e+00   -7.3289812341e+00   -7.1951848958e+00
   -7.0595286560e+00   -6.9223928378e+00   -6.7841559816e+00   -6.6451940571e+00
   -6.5058795596e+00   -6.3665804704e+00   -6.2276590796e+00   -6.0894706704e+00
   -5.9523620796e+00   -5.8166700798e+00   -5.6827196991e+00   -5.5508223633e+00
   -5.4212739530e+00   -5.2943527007e+00   -5.1703170897e+00   -5.0494035400e+00
   -4.9318240186e+00   -4.8177636487e+00   -4.7073781566e+00   -4.6007912591e+00
   -4.4980919767e+00   -4.3993318735e+00   -4.3045222275e+00   -4.2136312137e+00
   -4.1265808607e+00   -4.0432438377e+00   -3.9634411592e+00   -3.8869595066e+00
   -3.8135916025e+00   -3.7431452942e+00   -3.6754419749e+00   -3.6103158908e+00
   -3.5476125181e+00   -3.4871882092e+00   -3.4289088467e+00   -3.3726496295e+00
   -3.3182938607e+00   -3.2657329154e+00   -3.2148652694e+00   -3.1655961918e+00
   -3.1178374334e+00   -3.0715065944e+00   -3.0265268914e+00   -2.9828269546e+00
   -2.9403403441e+00   -2.8990053187e+00   -2.8587646530e+00   -2.8195654255e+00
   -2.7813586956e+00   -2.7440993328e+00   -2.7077458096e+00   -2.6722599695e+00
   -2.6376068987e+00   -2.6037546665e+00   -2.5706741108e+00   -2.5383386428e+00
   -2.5067240362e+00   -2.4758082142e+00   -2.4455710353e+00   -2.4159940785e+00
   -2.3870604303e+00   -2.3587544755e+00   -2.3310616932e+00   -2.3039684604e+00
   -2.2774618664e+00   -2.2515295388e+00   -2.2261594843e+00   -2.2013399461e+00
   -2.1770592791e+00   -2.1533058441e+00   -2.1300679226e+00   -2.1073336580e+00
   -2.0850909954e+00   -2.0633276674e+00   -2.0420311892e+00   -2.0211888715e+00
   -2.0007878496e+00   -1.9808151272e+00   -1.9612576275e+00   -1.9421022557e+00
   -1.9233359852e+00   -1.9049459279e+00   -1.8869194114e+00   -1.8692440280e+00
   -1.8519077546e+00   -1.8348990301e+00   -1.8182067760e+00   -1.8018204402e+00
   -1.7857300225e+00   -1.7699262307e+00   -1.7544003587e+00   -1.7391444068e+00
   -1.7241513910e+00   -1.7094149041e+00   -1.6949283914e+00   -1.6806851418e+00
   -1.6666793118e+00   -1.6529050288e+00   -1.6393565372e+00   -1.6260283354e+00
   -1.6129151224e+00   -1.6000117236e+00   -1.5873131231e+00   -1.5748145186e+00
   -1.5625112075e+00   -1.5503986290e+00   -1.5384724172e+00   -1.5267282808e+00
   -1.5151620774e+00   -1.5037698221e+00   -1.4925475838e+00   -1.4814916063e+00
   -1.4705982343e+00   -1.4598638619e+00   -1.4492850817e+00   -1.4388585096e+00
   -1.4285808834e+00   -1.4184490612e+00   -1.4084599113e+00   -1.3986104920e+00
   -1.3888978631e+00   -1.3793192008e+00   -1.3698717674e+00   -1.3605528496e+00
   -1.3513598874e+00   -1.3422902990e+00   -1.3333416549e+00   -1.3245115294e+00
   -1.3157975913e+00   -1.3071975681e+00   -1.2987092220e+00   -1.2903304217e+00
   -1.2820590200e+00   -1.2738930123e+00   -1.2658303454e+00   -1.2578691201e+00
   -1.2500073905e+00   -1.2422433402e+00   -1.2345751282e+00   -1.2270010179e+00
   -1.2195192646e+00   -1.2121282090e+00   -1.2048261947e+00   -1.1976116375e+00
   -1.1904829614e+00   -1.1834386556e+00   -1.1764772175e+00   -1.1695972076e+00
   -1.1627971899e+00   -1.1560757951e+00   -1.1494316470e+00   -1.1428634453e+00
   -1.1363698679e+00   -1.1299496816e+00   -1.1236016133e+00   -1.1173244954e+00
   -1.1111170992e+00   -1.1049783153e+00   -1.0989069715e+00   -1.0929019971e+00
   -1.0869622832e+00   -1.0810867896e+00   -1.0752744716e+00   -1.0695243151e+00
   -1.0638353388e+00   -1.0582065507e+00   -1.0526370315e+00   -1.0471258093e+00
   -1.0416720144e+00   -1.0362747227e+00   -1.0309330806e+00   -1.0256462248e+00
   -1.0204133106e+00   -1.0152335359e+00   -1.0101060634e+00   -1.0050301401e+00
   -1.0000049637e+00   -9.9502979509e-01   -9.9010388850e-01   -9.8522650356e-01
   -9.8039695184e-01   -9.7561449875e-01   -9.7087848953e-01   -9.6618823633e-01
   -9.6154307709e-01   -9.5694238357e-01   -9.5238548542e-01   -9.4787179443e-01
   -9.4340068216e-01   -9.3897154786e-01   -9.3458382085e-01   -9.3023689119e-01
   -9.2593022219e-01   -9.2166324612e-01   -9.1743540867e-01   -9.1324619440e-01
   -9.0909505086e-01   -9.0498147929e-01   -9.0090497409e-01   -8.9686501466e-01
   -8.9286113809e-01   -8.8889284780e-01   -8.8495967058e-01   -8.8106115837e-01
   -8.7719683072e-01   -8.7336625731e-01   -8.6956900186e-01   -8.6580460671e-01
   -8.6207267364e-01   -8.5837277569e-01   -8.5470449112e-01   -8.5106743638e-01
   -8.4746119942e-01   -8.4388539099e-01   -8.4033964140e-01   -8.3682355391e-01
   -8.3333676803e-01   -8.2987892766e-01   -8.2644965155e-01   -8.2304860442e-01
   -8.1967544372e-01   -8.1632980376e-01   -8.1301137110e-01   -8.0971981657e-01
   -8.0645479078e-01   -8.0321599828e-01   -8.0000312317e-01   -7.9681583368e-01
   -7.9365384812e-01   -7.9051686526e-01   -7.8740456836e-01   -7.8431668932e-01
   -7.8125294167e-01   -7.7821302127e-01   -7.7519667347e-01   -7.7220362543e-01
   -7.6923358691e-01   -7.6628631304e-01   -7.6336154485e-01   -7.6045900684e-01
   -7.5757846086e-01   -7.5471966218e-01   -7.5188235009e-01   -7.4906629106e-01
   -7.4627125457e-01   -7.4349699489e-01   -7.4074328111e-01   -7.3800989688e-01
   -7.3529661160e-01   -7.3260319525e-01   -7.2992944541e-01   -7.2727514676e-01
   -7.2464006883e-01   -7.2202402266e-01   -7.1942680330e-01   -7.1684819373e-01
   -7.1428800302e-01   -7.1174604062e-01   -7.0922210469e-01   -7.0671599945e-01
   -7.0422754882e-01   -7.0175656648e-01   -6.9930285090e-01   -6.9686623967e-01
   -6.9444655518e-01   -6.9204361057e-01   -6.8965723548e-01   -6.8728726731e-01
   -6.8493353479e-01   -6.8259585830e-01   -6.8027408946e-01   -6.7796806685e-01
   -6.7567761966e-01   -6.7340259451e-01   -6.7114284334e-01   -6.6889821110e-01
   -6.6666853234e-01   -6.6445367341e-01   -6.6225348756e-01   -6.6006782094e-01
   -6.5789652969e-01   -6.5573948134e-01   -6.5359653600e-01   -6.5146754198e-01
   -6.4935237457e-01   -6.4725090244e-01   -6.4516298961e-01   -6.4308849538e-01
   -6.4102730352e-01   -6.3897928686e-01   -6.3694431188e-01   -6.3492225321e-01
   -6.3291299679e-01   -6.3091642140e-01   -6.2893239660e-01   -6.2696081023e-01
   -6.2500155065e-01   -6.2305450228e-01   -6.2111953833e-01   -6.1919655775e-01
   -6.1728545168e-01   -6.1538610939e-01   -6.1349840980e-01   -6.1162225937e-01
   -6.0975755301e-01   -6.0790418385e-01   -6.0606203900e-01   -6.0423102850e-01
   -6.0241105218e-01   -6.0060200743e-01   -5.9880378789e-01   -5.9701630748e-01
   -5.9523947068e-01   -5.9347317955e-01   -5.9171733268e-01   -5.8997184815e-01
   -5.8823663490e-01   -5.8651159997e-01   -5.8479664543e-01   -5.8309169382e-01
   -5.8139665833e-01   -5.7971145131e-01   -5.7803597694e-01   -5.7637016247e-01
   -5.7471392514e-01   -5.7306718215e-01   -5.7142984084e-01   -5.6980183110e-01
   -5.6818307475e-01   -5.6657349289e-01   -5.6497299873e-01   -5.6338152110e-01
   -5.6179898754e-01   -5.6022532279e-01   -5.5866044633e-01   -5.5710428471e-01
   -5.5555677140e-01   -5.5401783464e-01   -5.5248740049e-01   -5.5096539222e-01
   -5.4945174929e-01   -5.4794640331e-01   -5.4644928588e-01   -5.4496032010e-01
   -5.4347944752e-01   -5.4200660421e-01   -5.4054172497e-01   -5.3908473990e-01
   -5.3763558480e-01   -5.3619420258e-01   -5.3476053107e-01   -5.3333450778e-01
   -5.3191606202e-01   -5.3050514339e-01   -5.2910169262e-01   -5.2770565043e-01
   -5.2631695259e-01   -5.2493554186e-01   -5.2356136607e-01   -5.2219436872e-01
   -5.2083449329e-01   -5.1948167463e-01   -5.1813586721e-01   -5.1679701734e-01
   -5.1546507114e-01   -5.1413997141e-01   -5.1282166293e-01   -5.1151009987e-01
   -5.1020523087e-01   -5.0890700456e-01   -5.0761536348e-01   -5.0633026144e-01
   -5.0505165203e-01   -5.0377948626e-01   -5.0251371517e-01   -5.0125428164e-01
   -5.0000114694e-01   -4.9875426449e-01   -4.9751358757e-01   -4.9627906774e-01
   -4.9505065408e-01   -4.9382830847e-01   -4.9261198641e-01   -4.9140164337e-01
   -4.9019723176e-01   -4.8899870589e-01   -4.8780602831e-01   -4.8661915658e-01
   -4.8543804824e-01   -4.8426265702e-01   -4.8309294118e-01   -4.8192886432e-01
   -4.8077038597e-01   -4.7961746566e-01   -4.7847005879e-01   -4.7732812642e-01
   -4.7619163356e-01   -4.7506054163e-01   -4.7393481203e-01   -4.7281440223e-01
   -4.7169927496e-01   -4.7058939701e-01   -4.6948473158e-01   -4.6838524190e-01
   -4.6729088781e-01   -4.6620163267e-01   -4.6511744539e-01   -4.6403829091e-01
   -4.6296413415e-01   -4.6189493768e-01   -4.6083066451e-01   -4.5977128600e-01
   -4.5871676870e-01   -4.5766707919e-01   -4.5662218308e-01   -4.5558204211e-01
   -4.5454663035e-01   -4.5351591594e-01   -4.5248986699e-01   -4.5146845163e-01
   -4.5045163204e-01   -4.4943938274e-01   -4.4843167416e-01   -4.4742847591e-01
   -4.4642975759e-01   -4.4543548505e-01   -4.4444562951e-01   -4.4346016491e-01
   -4.4247906228e-01   -4.4150229265e-01   -4.4052982584e-01   -4.3956162903e-01
   -4.3859767986e-01   -4.3763795070e-01   -4.3668241393e-01   -4.3573104192e-01
   -4.3478380238e-01   -4.3384067158e-01   -4.3290162488e-01   -4.3196663593e-01
   -4.3103567840e-01   -4.3010872454e-01   -4.2918574490e-01   -4.2826671914e-01
   -4.2735162215e-01   -4.2644042882e-01   -4.2553311405e-01   -4.2462964878e-01
   -4.2373001042e-01   -4.2283417718e-01   -4.2194212512e-01   -4.2105383031e-01
   -4.2016926876e-01   -4.1928841078e-01   -4.1841123932e-01   -4.1753773154e-01
   -4.1666786462e-01   -4.1580161574e-01   -4.1493896037e-01   -4.1407987359e-01
   -4.1322433773e-01   -4.1237233102e-01   -4.1152383170e-01   -4.1067881801e-01
   -4.0983726529e-01   -4.0899915239e-01   -4.0816446135e-01   -4.0733317141e-01
   -4.0650526184e-01   -4.0568071187e-01   -4.0485949712e-01   -4.0404159922e-01
   -4.0322700028e-01   -4.0241568050e-01   -4.0160762012e-01   -4.0080279935e-01
   -4.0000119443e-01   -3.9920278882e-01   -3.9840756506e-01   -3.9761550429e-01
   -3.9682658765e-01   -3.9604079630e-01   -3.9525810742e-01   -3.9447850542e-01
   -3.9370197363e-01   -3.9292849408e-01   -3.9215804879e-01   -3.9139061977e-01
   -3.9062618552e-01   -3.8986473052e-01   -3.8910623925e-01   -3.8835069457e-01
   -3.8759807933e-01   -3.8684837639e-01   -3.8610156584e-01   -3.8535763147e-01
   -3.8461655919e-01   -3.8387833266e-01   -3.8314293554e-01   -3.8241035148e-01
   -3.8168056246e-01   -3.8095355083e-01   -3.8022930425e-01   -3.7950780711e-01
   -3.7878904385e-01   -3.7807299889e-01   -3.7735965635e-01   -3.7664899651e-01
   -3.7594100897e-01   -3.7523567887e-01   -3.7453299135e-01   -3.7383293156e-01
   -3.7313548465e-01   -3.7244063248e-01   -3.7174836252e-01   -3.7105866202e-01
   -3.7037151682e-01   -3.6968691275e-01   -3.6900483566e-01   -3.6832527016e-01
   -3.6764820011e-01   -3.6697361536e-01   -3.6630150240e-01   -3.6563184773e-01
   -3.6496463784e-01   -3.6429985924e-01   -3.6363749507e-01   -3.6297753451e-01
   -3.6231996581e-01   -3.6166477608e-01   -3.6101195247e-01   -3.6036148208e-01
   -3.5971335135e-01   -3.5906754455e-01   -3.5842405304e-01   -3.5778286454e-01
   -3.5714396678e-01   -3.5650734748e-01   -3.5587299437e-01   -3.5524089309e-01
   -3.5461103153e-01   -3.5398340017e-01   -3.5335798731e-01   -3.5273478124e-01
   -3.5211377027e-01   -3.5149494269e-01   -3.5087828373e-01   -3.5026378405e-01
   -3.4965143359e-01   -3.4904122118e-01   -3.4843313568e-01   -3.4782716591e-01
   -3.4722330074e-01   -3.4662152533e-01   -3.4602183228e-01   -3.4542421132e-01
   -3.4482865181e-01   -3.4423514312e-01   -3.4364367460e-01   -3.4305423563e-01
   -3.4246681166e-01   -3.4188139641e-01   -3.4129797977e-01   -3.4071655158e-01
   -3.4013710172e-01   -3.3955962003e-01   -3.3898409638e-01   -3.3841051679e-01
   -3.3783887542e-01   -3.3726916258e-01   -3.3670136861e-01   -3.3613548384e-01
   -3.3557149861e-01   -3.3500940324e-01   -3.3444918462e-01   -3.3389083661e-01
   -3.3333435031e-01   -3.3277971650e-01
  </PP_LOCAL>
 <PP_NONLOCAL>
   <PP_BETA.1
       type="real"
       size=" 602"
       columns="4"
       index="1"
       angular_momentum="0"
       cutoff_radius_index=" 118"
       cutoff_radius="    1.1700000000E+00" >
    0.0000000000E+00   -2.6088547982E-01   -5.1833275472E-01   -7.6895641941E-01
   -1.0094757748E+00   -1.2367649640E+00   -1.4479004921E+00   -1.6402053307E+00
   -1.8112888675E+00   -1.9590820386E+00   -2.0818670611E+00   -2.1783012866E+00
   -2.2474347945E+00   -2.2887214604E+00   -2.3020233440E+00   -2.2876083718E+00
   -2.2461413919E+00   -2.1786688108E+00   -2.0865971283E+00   -1.9716657861E+00
   -1.8359148921E+00   -1.6816483354E+00   -1.5113931252E+00   -1.3278555788E+00
   -1.1338753152E+00   -9.3237750193E-01   -7.2632508798E-01   -5.1867053707E-01
   -3.1230935470E-01   -1.1003518382E-01    8.5502335005E-02    2.7183628053E-01
    4.4671684037E-01    6.0814212888E-01    7.5438240005E-01    8.8400019998E-01
    9.9586420814E-01    1.0891579569E+00    1.1633817902E+00    1.2183503968E+00
    1.2541845008E+00    1.2712971870E+00    1.2703761390E+00    1.2523616859E+00
    1.2184214326E+00    1.1699221627E+00    1.1083997635E+00    1.0355281365E+00
    9.5308744579E-01    8.6293235820E-01    7.6696227219E-01    6.6708583573E-01
    5.6517138232E-01    4.6301269339E-01    3.6230358110E-01    2.6460354791E-01
    1.7132725391E-01    8.3714876259E-02    2.8300950036E-03   -7.0461868736E-02
   -1.3548566127E-01   -1.9177104351E-01   -2.3903864371E-01   -2.7719764878E-01
   -3.0633813688E-01   -3.2671240755E-01   -3.3872209753E-01   -3.4290134301E-01
   -3.3989414704E-01   -3.3043492034E-01   -3.1532726713E-01   -2.9542143883E-01
   -2.7159339422E-01   -2.4472437166E-01   -2.1568159041E-01   -1.8530141020E-01
   -1.5437121547E-01   -1.2361699029E-01   -9.3692510618E-02   -6.5170103885E-02
   -3.8534327148E-02   -1.4178178357E-02    7.5982219585E-03    2.6586599843E-02
    4.2667321458E-02    5.5804230200E-02    6.6037784474E-02    7.3476782950E-02
    7.8288985480E-02    8.0690950459E-02    8.0937413388E-02    7.9310526716E-02
    7.6109267813E-02    7.1639300505E-02    6.6203546315E-02    6.0094670030E-02
    5.3585181276E-02    4.6922886516E-02    4.0325965406E-02    3.3979459512E-02