<PP_INFO>
Generated using ld1 code (maybe, or maybe not)                                  
Author: unknown    Generation date: as well                                     
Info: automatically converted from PWSCF format                                 
    0        The Pseudo was generated with a Non-Relativistic Calculation
nl pn  l   occ               Rcut            Rcut US             E pseu
*S  0  0  2.00      0.00000000000      0.00000000000      0.00000000000
*P  0  1  3.00      0.00000000000      0.00000000000      0.00000000000
</PP_INFO>


<PP_HEADER>
   0                   Version Number
  N                    Element
   NC                  Norm - Conserving pseudopotential
    F                  Nonlinear Core Correction
SLA  PZ   NOGX NOGC    PZ   Exchange-Correlation functional
    5.00000000000      Z valence
    0.00000000000      Total energy
  0.0000000  0.0000000 Suggested cutoff for wfc and rho
    1                  Max angular momentum component
 1126                  Number of points in mesh
    2    1             Number of Wavefunctions, Number of Projectors
 Wavefunctions         nl  l   occ
                       *S  0  2.00
                       *P  1  3.00
</PP_HEADER>


<PP_MESH>
  <PP_R>
  5.22757926829E-05  5.29598144963E-05  5.36527866444E-05  5.43548262411E-05
  5.50660519328E-05  5.57865839184E-05  5.65165439694E-05  5.72560554509E-05
  5.80052433420E-05  5.87642342573E-05  5.95331564681E-05  6.03121399240E-05
  6.11013162751E-05  6.19008188940E-05  6.27107828987E-05  6.35313451750E-05
  6.43626443998E-05  6.52048210647E-05  6.60580174995E-05  6.69223778966E-05
  6.77980483348E-05  6.86851768045E-05  6.95839132325E-05  7.04944095076E-05
  7.14168195056E-05  7.23512991161E-05  7.32980062683E-05  7.42571009581E-05
  7.52287452746E-05  7.62131034282E-05  7.72103417776E-05  7.82206288586E-05
  7.92441354120E-05  8.02810344129E-05  8.13315010997E-05  8.23957130038E-05
  8.34738499795E-05  8.45660942345E-05  8.56726303607E-05  8.67936453653E-05
  8.79293287026E-05  8.90798723057E-05  9.02454706192E-05  9.14263206321E-05
  9.26226219108E-05  9.38345766330E-05  9.50623896220E-05  9.63062683811E-05
  9.75664231288E-05  9.88430668342E-05  1.00136415253E-04  1.01446686965E-04
  1.02774103408E-04  1.04118888919E-04  1.05481270770E-04  1.06861479207E-04
  1.08259747488E-04  1.09676311924E-04  1.11111411919E-04  1.12565290006E-04
  1.14038191895E-04  1.15530366510E-04  1.17042066031E-04  1.18573545941E-04
  1.20125065062E-04  1.21696885605E-04  1.23289273211E-04  1.24902496998E-04
  1.26536829604E-04  1.28192547236E-04  1.29869929713E-04  1.31569260517E-04
  1.33290826839E-04  1.35034919629E-04  1.36801833641E-04  1.38591867489E-04
  1.40405323692E-04  1.42242508729E-04  1.44103733089E-04  1.45989311323E-04
  1.47899562097E-04  1.49834808250E-04  1.51795376842E-04  1.53781599213E-04
  1.55793811042E-04  1.57832352394E-04  1.59897567791E-04  1.61989806256E-04
  1.64109421385E-04  1.66256771396E-04  1.68432219198E-04  1.70636132445E-04
  1.72868883605E-04  1.75130850017E-04  1.77422413960E-04  1.79743962714E-04
  1.82095888625E-04  1.84478589174E-04  1.86892467044E-04  1.89337930186E-04
  1.91815391889E-04  1.94325270849E-04  1.96867991243E-04  1.99443982795E-04
  2.02053680856E-04  2.04697526470E-04  2.07375966452E-04  2.10089453467E-04
  2.12838446099E-04  2.15623408936E-04  2.18444812641E-04  2.21303134040E-04
  2.24198856195E-04  2.27132468491E-04  2.30104466714E-04  2.33115353140E-04
  2.36165636615E-04  2.39255832645E-04  2.42386463481E-04  2.45558058205E-04
  2.48771152826E-04  2.52026290363E-04  2.55324020944E-04  2.58664901892E-04
  2.62049497824E-04  2.65478380745E-04  2.68952130143E-04  2.72471333093E-04
  2.76036584345E-04  2.79648486438E-04  2.83307649790E-04  2.87014692810E-04
  2.90770241996E-04  2.94574932044E-04  2.98429405958E-04  3.02334315151E-04
  3.06290319563E-04  3.10298087768E-04  3.14358297089E-04  3.18471633709E-04
  3.22638792794E-04  3.26860478603E-04  3.31137404611E-04  3.35470293628E-04
  3.39859877923E-04  3.44306899347E-04  3.48812109456E-04  3.53376269642E-04
  3.58000151258E-04  3.62684535752E-04  3.67430214796E-04  3.72237990420E-04
  3.77108675151E-04  3.82043092146E-04  3.87042075332E-04  3.92106469551E-04
  3.97237130696E-04  4.02434925861E-04  4.07700733487E-04  4.13035443507E-04
  4.18439957500E-04  4.23915188842E-04  4.29462062860E-04  4.35081516989E-04
  4.40774500929E-04  4.46541976810E-04  4.52384919347E-04  4.58304316012E-04
  4.64301167197E-04  4.70376486385E-04  4.76531300319E-04  4.82766649176E-04
  4.89083586746E-04  4.95483180607E-04  5.01966512304E-04  5.08534677537E-04
  5.15188786340E-04  5.21929963275E-04  5.28759347615E-04  5.35678093544E-04
  5.42687370346E-04  5.49788362604E-04  5.56982270405E-04  5.64270309535E-04
  5.71653711690E-04  5.79133724684E-04  5.86711612655E-04  5.94388656285E-04
  6.02166153012E-04  6.10045417253E-04  6.18027780621E-04  6.26114592155E-04
  6.34307218546E-04  6.42607044366E-04  6.51015472306E-04  6.59533923410E-04
  6.68163837317E-04  6.76906672503E-04  6.85763906528E-04  6.94737036285E-04
  7.03827578255E-04  7.13037068760E-04  7.22367064228E-04  7.31819141448E-04
  7.41394897845E-04  7.51095951745E-04  7.60923942648E-04  7.70880531508E-04
  7.80967401013E-04  7.91186255868E-04  8.01538823083E-04  8.12026852267E-04
  8.22652115921E-04  8.33416409741E-04  8.44321552918E-04  8.55369388447E-04
  8.66561783439E-04  8.77900629434E-04  8.89387842725E-04  9.01025364679E-04
  9.12815162064E-04  9.24759227383E-04  9.36859579213E-04  9.49118262542E-04
  9.61537349116E-04  9.74118937791E-04  9.86865154884E-04  9.99778154538E-04
  1.01286011908E-03  1.02611325939E-03  1.03953981529E-03  1.05314205589E-03
  1.06692228000E-03  1.08088281651E-03  1.09502602480E-03  1.10935429509E-03
  1.12387004890E-03  1.13857573942E-03  1.15347385195E-03  1.16856690430E-03
  1.18385744724E-03  1.19934806492E-03  1.21504137526E-03  1.23094003049E-03
  1.24704671752E-03  1.26336415841E-03  1.27989511085E-03  1.29664236861E-03
  1.31360876202E-03  1.33079715843E-03  1.34821046273E-03  1.36585161781E-03
  1.38372360506E-03  1.40182944490E-03  1.42017219725E-03  1.43875496207E-03
  1.45758087992E-03  1.47665313240E-03  1.49597494277E-03  1.51554957647E-03
  1.53538034166E-03  1.55547058977E-03  1.57582371612E-03  1.59644316043E-03
  1.61733240743E-03  1.63849498746E-03  1.65993447704E-03  1.68165449950E-03
  1.70365872557E-03  1.72595087402E-03  1.74853471228E-03  1.77141405706E-03
  1.79459277504E-03  1.81807478346E-03  1.84186405085E-03  1.86596459765E-03
  1.89038049691E-03  1.91511587497E-03  1.94017491218E-03  1.96556184356E-03
  1.99128095957E-03  2.01733660680E-03  2.04373318872E-03  2.07047516641E-03
  2.09756705934E-03  2.12501344609E-03  2.15281896517E-03  2.18098831578E-03
  2.20952625860E-03  2.23843761662E-03  2.26772727593E-03  2.29740018654E-03
  2.32746136326E-03  2.35791588648E-03  2.38876890310E-03  2.42002562735E-03
  2.45169134169E-03  2.48377139771E-03  2.51627121700E-03  2.54919629211E-03
  2.58255218747E-03  2.61634454029E-03  2.65057906157E-03  2.68526153702E-03
  2.72039782805E-03  2.75599387280E-03  2.79205568707E-03  2.82858936540E-03
  2.86560108206E-03  2.90309709212E-03  2.94108373251E-03  2.97956742304E-03
  3.01855466756E-03  3.05805205500E-03  3.09806626052E-03  3.13860404661E-03
  3.17967226426E-03  3.22127785408E-03  3.26342784753E-03  3.30612936806E-03
  3.34938963231E-03  3.39321595139E-03  3.43761573203E-03  3.48259647792E-03
  3.52816579090E-03  3.57433137230E-03  3.62110102421E-03  3.66848265081E-03
  3.71648425970E-03  3.76511396329E-03  3.81437998009E-03  3.86429063619E-03
  3.91485436660E-03  3.96607971672E-03  4.01797534376E-03  4.07055001818E-03
  4.12381262525E-03  4.17777216647E-03  4.23243776113E-03  4.28781864784E-03
  4.34392418611E-03  4.40076385791E-03  4.45834726927E-03  4.51668415193E-03
  4.57578436497E-03  4.63565789645E-03  4.69631486515E-03  4.75776552224E-03
  4.82002025303E-03  4.88308957871E-03  4.94698415815E-03  5.01171478970E-03
  5.07729241296E-03  5.14372811073E-03  5.21103311080E-03  5.27921878786E-03
  5.34829666546E-03  5.41827841793E-03  5.48917587235E-03  5.56100101055E-03
  5.63376597116E-03  5.70748305163E-03  5.78216471032E-03  5.85782356861E-03
  5.93447241302E-03  6.01212419740E-03  6.09079204507E-03  6.17048925110E-03
  6.25122928449E-03  6.33302579051E-03  6.41589259297E-03  6.49984369654E-03
  6.58489328917E-03  6.67105574444E-03  6.75834562401E-03  6.84677768007E-03
  6.93636685785E-03  7.02712829815E-03  7.11907733985E-03  7.21222952256E-03
  7.30660058924E-03  7.40220648880E-03  7.49906337887E-03  7.59718762851E-03
  7.69659582093E-03  7.79730475637E-03  7.89933145488E-03  8.00269315919E-03
  8.10740733770E-03  8.21349168735E-03  8.32096413664E-03  8.42984284867E-03
  8.54014622421E-03  8.65189290479E-03  8.76510177586E-03  8.87979196999E-03
  8.99598287010E-03  9.11369411273E-03  9.23294559135E-03  9.35375745975E-03
  9.47615013543E-03  9.60014430303E-03  9.72576091787E-03  9.85302120946E-03
  9.98194668508E-03  1.01125591334E-02  1.02448806284E-02  1.03789335325E-02
  1.05147405011E-02  1.06523244859E-02  1.07917087389E-02  1.09329168163E-02
  1.10759725827E-02  1.12209002148E-02  1.13677242058E-02  1.15164693692E-02
  1.16671608434E-02  1.18198240955E-02  1.19744849260E-02  1.21311694729E-02
  1.22899042164E-02  1.24507159829E-02  1.26136319501E-02  1.27786796511E-02
  1.29458869794E-02  1.31152821933E-02  1.32868939212E-02  1.34607511658E-02
  1.36368833094E-02  1.38153201187E-02  1.39960917500E-02  1.41792287541E-02
  1.43647620816E-02  1.45527230881E-02  1.47431435394E-02  1.49360556171E-02
  1.51314919237E-02  1.53294854885E-02  1.55300697728E-02  1.57332786759E-02
  1.59391465405E-02  1.61477081588E-02  1.63589987782E-02  1.65730541074E-02
  1.67899103221E-02  1.70096040717E-02  1.72321724848E-02  1.74576531761E-02
  1.76860842523E-02  1.79175043189E-02  1.81519524863E-02  1.83894683769E-02
  1.86300921314E-02  1.88738644159E-02  1.91208264283E-02  1.93710199059E-02
  1.96244871320E-02  1.98812709431E-02  2.01414147364E-02  2.04049624766E-02
  2.06719587041E-02  2.09424485418E-02  2.12164777032E-02  2.14940924998E-02
  2.17753398492E-02  2.20602672828E-02  2.23489229541E-02  2.26413556466E-02
  2.29376147821E-02  2.32377504291E-02  2.35418133112E-02  2.38498548158E-02
  2.41619270026E-02  2.44780826126E-02  2.47983750768E-02  2.51228585254E-02
  2.54515877969E-02  2.57846184473E-02  2.61220067596E-02  2.64638097533E-02
  2.68100851937E-02  2.71608916024E-02  2.75162882664E-02  2.78763352486E-02
  2.82410933978E-02  2.86106243590E-02  2.89849905838E-02  2.93642553410E-02
  2.97484827273E-02  3.01377376779E-02  3.05320859779E-02  3.09315942732E-02
  3.13363300815E-02  3.17463618041E-02  3.21617587375E-02  3.25825910846E-02
  3.30089299672E-02  3.34408474375E-02  3.38784164907E-02  3.43217110768E-02
  3.47708061138E-02  3.52257774998E-02  3.56867021260E-02  3.61536578898E-02
  3.66267237079E-02  3.71059795294E-02  3.75915063498E-02  3.80833862243E-02
  3.85817022816E-02  3.90865387385E-02  3.95979809135E-02  4.01161152414E-02
  4.06410292884E-02  4.11728117660E-02  4.17115525468E-02  4.22573426792E-02
  4.28102744031E-02  4.33704411653E-02  4.39379376353E-02  4.45128597213E-02
  4.50953045866E-02  4.56853706657E-02  4.62831576811E-02  4.68887666604E-02
  4.75022999528E-02  4.81238612469E-02  4.87535555882E-02  4.93914893964E-02
  5.00377704838E-02  5.06925080736E-02  5.13558128179E-02  5.20277968168E-02
  5.27085736371E-02  5.33982583319E-02  5.40969674594E-02  5.48048191032E-02
  5.55219328918E-02  5.62484300193E-02  5.69844332653E-02  5.77300670161E-02
  5.84854572857E-02  5.92507317368E-02  6.00260197025E-02  6.08114522085E-02
  6.16071619946E-02  6.24132835377E-02  6.32299530743E-02  6.40573086234E-02
  6.48954900102E-02  6.57446388892E-02  6.66048987687E-02  6.74764150346E-02
  6.83593349752E-02  6.92538078062E-02  7.01599846955E-02  7.10780187892E-02
  7.20080652373E-02  7.29502812197E-02  7.39048259734E-02  7.48718608185E-02
  7.58515491863E-02  7.68440566464E-02  7.78495509350E-02  7.88682019830E-02
  7.99001819449E-02  8.09456652276E-02  8.20048285205E-02  8.30778508245E-02
  8.41649134831E-02  8.52662002124E-02  8.63818971324E-02  8.75121927987E-02
  8.86572782339E-02  8.98173469600E-02  9.09925950316E-02  9.21832210683E-02
  9.33894262888E-02  9.46114145446E-02  9.58493923546E-02  9.71035689401E-02
  9.83741562599E-02  9.96613690462E-02  1.00965424841E-01  1.02286544033E-01
  1.03624949894E-01  1.04980868619E-01  1.06354529360E-01  1.07746164270E-01
  1.09156008538E-01  1.10584300431E-01  1.12031281334E-01  1.13497195791E-01
  1.14982291543E-01  1.16486819577E-01  1.18011034160E-01  1.19555192889E-01
  1.21119556730E-01  1.22704390065E-01  1.24309960733E-01  1.25936540081E-01
  1.27584403004E-01  1.29253827994E-01  1.30945097189E-01  1.32658496417E-01
  1.34394315247E-01  1.36152847036E-01  1.37934388980E-01  1.39739242164E-01
  1.41567711613E-01  1.43420106342E-01  1.45296739410E-01  1.47197927973E-01
  1.49123993336E-01  1.51075261009E-01  1.53052060761E-01  1.55054726675E-01
  1.57083597207E-01  1.59139015241E-01  1.61221328147E-01  1.63330887842E-01
  1.65468050845E-01  1.67633178342E-01  1.69826636246E-01  1.72048795256E-01
  1.74300030921E-01  1.76580723706E-01  1.78891259054E-01  1.81232027451E-01
  1.83603424491E-01  1.86005850948E-01  1.88439712836E-01  1.90905421483E-01
  1.93403393602E-01  1.95934051354E-01  1.98497822427E-01  2.01095140105E-01
  2.03726443340E-01  2.06392176829E-01  2.09092791086E-01  2.11828742524E-01
  2.14600493523E-01  2.17408512516E-01  2.20253274065E-01  2.23135258942E-01
  2.26054954208E-01  2.29012853300E-01  2.32009456109E-01  2.35045269069E-01
  2.38120805238E-01  2.41236584390E-01  2.44393133099E-01  2.47590984829E-01
  2.50830680025E-01  2.54112766203E-01  2.57437798043E-01  2.60806337484E-01
  2.64218953817E-01  2.67676223781E-01  2.71178731665E-01  2.74727069400E-01
  2.78321836663E-01  2.81963640979E-01  2.85653097821E-01  2.89390830717E-01
  2.93177471352E-01  2.97013659678E-01  3.00900044019E-01  3.04837281183E-01
  3.08826036574E-01  3.12866984300E-01  3.16960807291E-01  3.21108197412E-01
  3.25309855584E-01  3.29566491895E-01  3.33878825728E-01  3.38247585876E-01
  3.42673510672E-01  3.47157348107E-01  3.51699855960E-01  3.56301801926E-01
  3.60963963744E-01  3.65687129331E-01  3.70472096914E-01  3.75319675163E-01
  3.80230683330E-01  3.85205951387E-01  3.90246320167E-01  3.95352641504E-01
  4.00525778379E-01  4.05766605063E-01  4.11076007269E-01  4.16454882299E-01
  4.21904139195E-01  4.27424698895E-01  4.33017494387E-01  4.38683470865E-01
  4.44423585894E-01  4.50238809567E-01  4.56130124671E-01  4.62098526851E-01
  4.68145024782E-01  4.74270640336E-01  4.80476408758E-01  4.86763378836E-01
  4.93132613084E-01  4.99585187917E-01  5.06122193835E-01  5.12744735610E-01
  5.19453932465E-01  5.26250918270E-01  5.33136841734E-01  5.40112866593E-01
  5.47180171811E-01  5.54339951781E-01  5.61593416523E-01  5.68941791888E-01
  5.76386319770E-01  5.83928258313E-01  5.91568882120E-01  5.99309482477E-01
  6.07151367563E-01  6.15095862674E-01  6.23144310451E-01  6.31298071099E-01
  6.39558522624E-01  6.47927061062E-01  6.56405100714E-01  6.64994074392E-01
  6.73695433650E-01  6.82510649040E-01  6.91441210355E-01  7.00488626879E-01
  7.09654427649E-01  7.18940161706E-01  7.28347398362E-01  7.37877727461E-01
  7.47532759653E-01  7.57314126660E-01  7.67223481557E-01  7.77262499048E-01
  7.87432875752E-01  7.97736330486E-01  8.08174604559E-01  8.18749462063E-01
  8.29462690175E-01  8.40316099456E-01  8.51311524157E-01  8.62450822533E-01
  8.73735877150E-01  8.85168595210E-01  8.96750908870E-01  9.08484775567E-01
  9.20372178354E-01  9.32415126229E-01  9.44615654480E-01  9.56975825025E-01
  9.69497726762E-01  9.82183475922E-01  9.95035216428E-01  1.00805512025E+00
  1.02124538779E+00  1.03460824823E+00  1.04814595993E+00  1.06186081079E+00
  1.07575511865E+00  1.08983123169E+00  1.10409152881E+00  1.11853842001E+00
  1.13317434688E+00  1.14800178290E+00  1.16302323396E+00  1.17824123871E+00
  1.19365836904E+00  1.20927723047E+00  1.22510046263E+00  1.24113073969E+00
  1.25737077079E+00  1.27382330055E+00  1.29049110948E+00  1.30737701447E+00
  1.32448386930E+00  1.34181456505E+00  1.35937203065E+00  1.37715923337E+00
  1.39517917927E+00  1.41343491377E+00  1.43192952214E+00  1.45066613001E+00
  1.46964790390E+00  1.48887805179E+00  1.50835982361E+00  1.52809651183E+00
  1.54809145200E+00  1.56834802331E+00  1.58886964917E+00  1.60965979779E+00
  1.63072198273E+00  1.65205976358E+00  1.67367674646E+00  1.69557658469E+00
  1.71776297939E+00  1.74023968014E+00  1.76301048552E+00  1.78607924388E+00
  1.80944985388E+00  1.83312626521E+00  1.85711247925E+00  1.88141254971E+00
  1.90603058337E+00  1.93097074074E+00  1.95623723676E+00  1.98183434153E+00
  2.00776638101E+00  2.03403773780E+00  2.06065285180E+00  2.08761622104E+00
  2.11493240239E+00  2.14260601235E+00  2.17064172783E+00  2.19904428693E+00
  2.22781848974E+00  2.25696919918E+00  2.28650134178E+00  2.31641990856E+00
  2.34672995581E+00  2.37743660601E+00  2.40854504866E+00  2.44006054115E+00
  2.47198840968E+00  2.50433405014E+00  2.53710292901E+00  2.57030058431E+00
  2.60393262653E+00  2.63800473957E+00  2.67252268168E+00  2.70749228648E+00
  2.74291946393E+00  2.77881020129E+00  2.81517056420E+00  2.85200669762E+00
  2.88932482697E+00  2.92713125909E+00  2.96543238336E+00  3.00423467276E+00
  3.04354468497E+00  3.08336906348E+00  3.12371453870E+00  3.16458792911E+00
  3.20599614241E+00  3.24794617669E+00  3.29044512160E+00  3.33350015957E+00
  3.37711856700E+00  3.42130771551E+00  3.46607507316E+00  3.51142820576E+00
  3.55737477807E+00  3.60392255519E+00  3.65107940380E+00  3.69885329352E+00
  3.74725229825E+00  3.79628459754E+00  3.84595847795E+00  3.89628233451E+00
  3.94726467205E+00  3.99891410672E+00  4.05123936739E+00  4.10424929716E+00
  4.15795285482E+00  4.21235911641E+00  4.26747727672E+00  4.32331665085E+00
  4.37988667578E+00  4.43719691199E+00  4.49525704503E+00  4.55407688721E+00
  4.61366637923E+00  4.67403559184E+00  4.73519472760E+00  4.79715412253E+00
  4.85992424793E+00  4.92351571209E+00  4.98793926213E+00  5.05320578577E+00
  5.11932631322E+00  5.18631201900E+00  5.25417422385E+00  5.32292439666E+00
  5.39257415636E+00  5.46313527392E+00  5.53461967435E+00  5.60703943867E+00
  5.68040680601E+00  5.75473417562E+00  5.83003410899E+00  5.90631933201E+00
  5.98360273706E+00  6.06189738521E+00  6.14121650844E+00  6.22157351188E+00
  6.30298197605E+00  6.38545565918E+00  6.46900849951E+00  6.55365461768E+00
  6.63940831907E+00  6.72628409628E+00  6.81429663150E+00  6.90346079907E+00
  6.99379166795E+00  7.08530450427E+00  7.17801477391E+00  7.27193814514E+00
  7.36709049121E+00  7.46348789312E+00  7.56114664224E+00  7.66008324314E+00
  7.76031441635E+00  7.86185710115E+00  7.96472845852E+00  8.06894587396E+00
  8.17452696046E+00  8.28148956146E+00  8.38985175392E+00  8.49963185128E+00
  8.61084840667E+00  8.72352021592E+00  8.83766632086E+00  8.95330601244E+00
  9.07045883404E+00  9.18914458478E+00  9.30938332282E+00  9.43119536880E+00
  9.55460130925E+00  9.67962200005E+00  9.80627857002E+00  9.93459242440E+00
  1.00645852485E+01  1.01962790116E+01  1.03296959700E+01  1.04648586716E+01
  1.06017899593E+01  1.07405129747E+01  1.08810511623E+01  1.10234282735E+01
  1.11676683703E+01  1.13137958297E+01  1.14618353474E+01  1.16118119427E+01
  1.17637509617E+01  1.19176780827E+01  1.20736193197E+01  1.22316010270E+01
  1.23916499041E+01  1.25537929994E+01  1.27180577157E+01  1.28844718140E+01
  1.30530634187E+01  1.32238610221E+01  1.33968934896E+01  1.35721900639E+01
  1.37497803707E+01  1.39296944231E+01  1.41119626270E+01  1.42966157861E+01
  1.44836851074E+01  1.46732022059E+01  1.48651991105E+01  1.50597082691E+01
  1.52567625543E+01  1.54563952687E+01  1.56586401506E+01  1.58635313800E+01
  1.60711035840E+01  1.62813918427E+01  1.64944316954E+01  1.67102591463E+01
  1.69289106708E+01  1.71504232215E+01  1.73748342345E+01  1.76021816359E+01
  1.78325038478E+01  1.80658397953E+01  1.83022289128E+01  1.85417111505E+01
  1.87843269816E+01  1.90301174085E+01  1.92791239707E+01  1.95313887506E+01
  1.97869543818E+01  2.00458640553E+01  2.03081615276E+01  2.05738911275E+01
  2.08430977640E+01  2.11158269336E+01  2.13921247282E+01  2.16720378429E+01
  2.19556135834E+01  2.22428998750E+01  2.25339452695E+01  2.28287989545E+01
  2.31275107608E+01  2.34301311715E+01  2.37367113301E+01  2.40473030494E+01
  2.43619588201E+01  2.46807318199E+01  2.50036759221E+01  2.53308457051E+01
  2.56622964612E+01  2.59980842066E+01  2.63382656900E+01  2.66828984031E+01
  2.70320405895E+01  2.73857512550E+01  2.77440901778E+01  2.81071179178E+01
  2.84748958276E+01  2.88474860626E+01  2.92249515914E+01  2.96073562065E+01
  2.99947645354E+01  3.03872420508E+01  3.07848550825E+01  3.11876708279E+01
  3.15957573640E+01  3.20091836582E+01  3.24280195807E+01  3.28523359156E+01
  3.32822043735E+01  3.37176976032E+01  3.41588892040E+01  3.46058537384E+01
  3.50586667444E+01  3.55174047486E+01  3.59821452787E+01  3.64529668770E+01
  3.69299491135E+01  3.74131725992E+01  3.79027190002E+01  3.83986710509E+01
  3.89011125684E+01  3.94101284665E+01  3.99258047701E+01  4.04482286297E+01
  4.09774883363E+01  4.15136733359E+01  4.20568742451E+01  4.26071828662E+01
  4.31646922026E+01  4.37294964747E+01  4.43016911358E+01  4.48813728881E+01
  4.54686396993E+01  4.60635908188E+01  4.66663267947E+01  4.72769494910E+01
  4.78955621043E+01  4.85222691815E+01  4.91571766378E+01  4.98003917739E+01
  5.04520232947E+01  5.11121813275E+01  5.17809774407E+01  5.24585246622E+01
  5.31449374993E+01  5.38403319574E+01  5.45448255596E+01  5.52585373673E+01
  5.59815879992E+01  5.67140996528E+01  5.74561961241E+01  5.82080028294E+01
  5.89696468257E+01  5.97412568327E+01  6.05229632543E+01  6.13148982007E+01
  6.21171955108E+01  6.29299907748E+01  6.37534213571E+01  6.45876264193E+01
  6.54327469440E+01  6.62889257588E+01  6.71563075598E+01  6.80350389366E+01
  6.89252683969E+01  6.98271463916E+01  7.07408253402E+01  7.16664596567E+01
  7.26042057755E+01  7.35542221778E+01  7.45166694188E+01  7.54917101542E+01
  7.64795091683E+01  7.74802334016E+01  7.84940519786E+01  7.95211362373E+01
  8.05616597573E+01  8.16157983895E+01  8.26837302859E+01  8.37656359295E+01
  8.48616981649E+01  8.59721022293E+01  8.70970357837E+01  8.82366889443E+01
  8.93912543154E+01  9.05609270213E+01  9.17459047393E+01  9.29463877336E+01
  9.41625788887E+01  9.53946837437E+01  9.66429105273E+01  9.79074701929E+01
  9.91885764539E+01  1.00486445820E+02  1.01801297635E+02  1.03133354112E+02
  1.04482840371E+02  1.05849984479E+02  1.07235017486E+02  1.08638173466E+02
  1.10059689556E+02  1.11499805995E+02  1.12958766167E+02  1.14436816640E+02
  1.15934207206E+02  1.17451190930E+02
  </PP_R>
  <PP_RAB>
  6.79585304878E-07  6.88477588452E-07  6.97486226377E-07  7.06612741134E-07
  7.15858675127E-07  7.25225590939E-07  7.34715071602E-07  7.44328720862E-07
  7.54068163446E-07  7.63935045345E-07  7.73931034085E-07  7.84057819012E-07
  7.94317111576E-07  8.04710645622E-07  8.15240177683E-07  8.25907487275E-07
  8.36714377197E-07  8.47662673841E-07  8.58754227494E-07  8.69990912655E-07
  8.81374628352E-07  8.92907298458E-07  9.04590872023E-07  9.16427323598E-07
  9.28418653573E-07  9.40566888509E-07  9.52874081488E-07  9.65342312455E-07
  9.77973688570E-07  9.90770344567E-07  1.00373444311E-06  1.01686817516E-06
  1.03017376036E-06  1.04365344737E-06  1.05730951430E-06  1.07114426905E-06
  1.08516004973E-06  1.09935922505E-06  1.11374419469E-06  1.12831738975E-06
  1.14308127313E-06  1.15803833997E-06  1.17319111805E-06  1.18854216822E-06
  1.20409408484E-06  1.21984949623E-06  1.23581106509E-06  1.25198148895E-06
  1.26836350067E-06  1.28495986884E-06  1.30177339829E-06  1.31880693054E-06
  1.33606334430E-06  1.35354555594E-06  1.37125652001E-06  1.38919922969E-06
  1.40737671735E-06  1.42579205502E-06  1.44444835494E-06  1.46334877007E-06
  1.48249649463E-06  1.50189476462E-06  1.52154685841E-06  1.54145609723E-06
  1.56162584581E-06  1.58205951286E-06  1.60276055174E-06  1.62373246097E-06
  1.64497878485E-06  1.66650311406E-06  1.68830908626E-06  1.71040038672E-06
  1.73278074891E-06  1.75545395518E-06  1.77842383734E-06  1.80169427736E-06
  1.82526920800E-06  1.84915261348E-06  1.87334853016E-06  1.89786104719E-06
  1.92269430726E-06  1.94785250725E-06  1.97333989894E-06  1.99916078977E-06
  2.02531954354E-06  2.05182058113E-06  2.07866838128E-06  2.10586748133E-06
  2.13342247800E-06  2.16133802815E-06  2.18961884957E-06  2.21826972178E-06
  2.24729548686E-06  2.27670105022E-06  2.30649138149E-06  2.33667151528E-06
  2.36724655212E-06  2.39822165926E-06  2.42960207157E-06  2.46139309242E-06
  2.49360009455E-06  2.52622852104E-06  2.55928388615E-06  2.59277177634E-06
  2.62669785113E-06  2.66106784411E-06  2.69588756388E-06  2.73116289507E-06
  2.76689979929E-06  2.80310431616E-06  2.83978256434E-06  2.87694074252E-06
  2.91458513054E-06  2.95272209038E-06  2.99135806728E-06  3.03049959082E-06
  3.07015327600E-06  3.11032582439E-06  3.15102402525E-06  3.19225475667E-06
  3.23402498674E-06  3.27634177473E-06  3.31921227227E-06  3.36264372459E-06
  3.40664347171E-06  3.45121894968E-06  3.49637769186E-06  3.54212733020E-06
  3.58847559649E-06  3.63543032369E-06  3.68299944728E-06  3.73119100653E-06
  3.78001314594E-06  3.82947411658E-06  3.87958227745E-06  3.93034609696E-06
  3.98177415432E-06  4.03387514098E-06  4.08665786215E-06  4.14013123822E-06
  4.19430430633E-06  4.24918622184E-06  4.30478625994E-06  4.36111381716E-06
  4.41817841300E-06  4.47598969151E-06  4.53455742293E-06  4.59389150534E-06
  4.65400196635E-06  4.71489896478E-06  4.77659279234E-06  4.83909387546E-06
  4.90241277697E-06  4.96656019790E-06  5.03154697932E-06  5.09738410416E-06
  5.16408269904E-06  5.23165403620E-06  5.30010953533E-06  5.36946076559E-06
  5.43971944751E-06  5.51089745495E-06  5.58300681718E-06  5.65605972085E-06
  5.73006851208E-06  5.80504569852E-06  5.88100395151E-06  5.95795610816E-06
  6.03591517357E-06  6.11489432301E-06  6.19490690414E-06  6.27596643929E-06
  6.35808662770E-06  6.44128134789E-06  6.52556465995E-06  6.61095080798E-06
  6.69745422242E-06  6.78508952257E-06  6.87387151900E-06  6.96381521607E-06
  7.05493581449E-06  7.14724871386E-06  7.24076951526E-06  7.33551402395E-06
  7.43149825197E-06  7.52873842089E-06  7.62725096451E-06  7.72705253170E-06
  7.82815998916E-06  7.93059042429E-06  8.03436114808E-06  8.13948969802E-06
  8.24599384110E-06  8.35389157676E-06  8.46320113998E-06  8.57394100433E-06
  8.68612988512E-06  8.79978674254E-06  8.91493078486E-06  9.03158147170E-06
  9.14975851731E-06  9.26948189388E-06  9.39077183496E-06  9.51364883883E-06
  9.63813367199E-06  9.76424737268E-06  9.89201125442E-06  1.00214469096E-05
  1.01525762132E-05  1.02854213263E-05  1.04200047001E-05  1.05563490795E-05
  1.06944775070E-05  1.08344133266E-05  1.09761801879E-05  1.11198020498E-05
  1.12653031847E-05  1.14127081826E-05  1.15620419554E-05  1.17133297408E-05
  1.18665971068E-05  1.20218699560E-05  1.21791745298E-05  1.23385374130E-05
  1.24999855385E-05  1.26635461913E-05  1.28292470135E-05  1.29971160090E-05
  1.31671815480E-05  1.33394723721E-05  1.35140175987E-05  1.36908467265E-05
  1.38699896400E-05  1.40514766147E-05  1.42353383224E-05  1.44216058362E-05
  1.46103106357E-05  1.48014846124E-05  1.49951600753E-05  1.51913697559E-05
  1.53901468142E-05  1.55915248439E-05  1.57955378784E-05  1.60022203964E-05
  1.62116073278E-05  1.64237340594E-05  1.66386364411E-05  1.68563507920E-05
  1.70769139062E-05  1.73003630596E-05  1.75267360155E-05  1.77560710315E-05
  1.79884068658E-05  1.82237827837E-05  1.84622385642E-05  1.87038145070E-05
  1.89485514389E-05  1.91964907212E-05  1.94476742560E-05  1.97021444941E-05
  1.99599444415E-05  2.02211176670E-05  2.04857083096E-05  2.07537610856E-05
  2.10253212966E-05  2.13004348370E-05  2.15791482015E-05  2.18615084935E-05
  2.21475634324E-05  2.24373613623E-05  2.27309512596E-05  2.30283827418E-05
  2.33297060755E-05  2.36349721850E-05  2.39442326611E-05  2.42575397695E-05
  2.45749464599E-05  2.48965063747E-05  2.52222738583E-05  2.55523039662E-05
  2.58866524744E-05  2.62253758884E-05  2.65685314534E-05  2.69161771634E-05
  2.72683717714E-05  2.76251747991E-05  2.79866465472E-05  2.83528481051E-05
  2.87238413618E-05  2.90996890161E-05  2.94804545871E-05  2.98662024251E-05
  3.02569977223E-05  3.06529065242E-05  3.10539957403E-05  3.14603331556E-05
  3.18719874420E-05  3.22890281702E-05  3.27115258209E-05  3.31395517975E-05
  3.35731784371E-05  3.40124790238E-05  3.44575278004E-05  3.49083999812E-05
  3.53651717647E-05  3.58279203464E-05  3.62967239319E-05  3.67716617502E-05
  3.72528140668E-05  3.77402621976E-05  3.82340885226E-05  3.87343764995E-05
  3.92412106783E-05  3.97546767150E-05  4.02748613868E-05  4.08018526060E-05
  4.13357394354E-05  4.18766121031E-05  4.24245620179E-05  4.29796817847E-05
  4.35420652201E-05  4.41118073680E-05  4.46890045164E-05  4.52737542130E-05
  4.58661552817E-05  4.64663078399E-05  4.70743133147E-05  4.76902744605E-05
  4.83142953761E-05  4.89464815227E-05  4.95869397412E-05  5.02357782705E-05
  5.08931067659E-05  5.15590363174E-05  5.22336794688E-05  5.29171502364E-05
  5.36095641283E-05  5.43110381641E-05  5.50216908947E-05  5.57416424219E-05
  5.64710144195E-05  5.72099301528E-05  5.79585145005E-05  5.87168939751E-05
  5.94851967446E-05  6.02635526539E-05  6.10520932470E-05  6.18509517891E-05
  6.26602632894E-05  6.34801645232E-05  6.43107940560E-05  6.51522922660E-05
  6.60048013685E-05  6.68684654395E-05  6.77434304404E-05  6.86298442422E-05
  6.95278566510E-05  7.04376194331E-05  7.13592863405E-05  7.22930131372E-05
  7.32389576251E-05  7.41972796712E-05  7.51681412342E-05  7.61517063919E-05