<PP_INFO>
Generated using ld1 code
Author: P. Giannozzi    Generation date: 1996
Info: N LDA 2s2 2p3 VonBarth-Car, l=1 local
    0        The Pseudo was generated with a Non-Relativistic Calculation
  0.00000000000E+00    Local Potential cutoff radius
nl pn  l   occ               Rcut            Rcut US             E pseu
2S  0  0  2.00      1.12000000000      0.00000000000      0.00000000000
2P  0  1  3.00      1.12000000000      0.00000000000      0.00000000000
</PP_INFO>


<PP_HEADER>
   0                   Version Number
  N                    Element
   NC                  Norm - Conserving pseudopotential
    F                  Nonlinear Core Correction
 SLA  PZ   NOGX NOGC   PZ   Exchange-Correlation functional
    5.00000000000      Z valence
    0.00000000000      Total energy
 60.0000000 240.000000 Suggested cutoff for wfc and rho
    0                  Max angular momentum component
  161                  Number of points in mesh
    2    1             Number of Wavefunctions, Number of Projectors
 Wavefunctions         nl  l   occ
                       2S  0  2.00
                       2P  1  3.00
</PP_HEADER>


<PP_MESH>
  <PP_R>
  2.61651984125E-03  2.78527087266E-03  2.96490541053E-03  3.15612538072E-03
  3.35967797943E-03  3.57635859285E-03  3.80701390519E-03  4.05254520710E-03
  4.31391191747E-03  4.59213533241E-03  4.88830261595E-03  5.20357104819E-03
  5.53917254739E-03  5.89641848369E-03  6.27670480334E-03  6.68151748342E-03
  7.11243833827E-03  7.57115120048E-03  8.05944850054E-03  8.57923827076E-03
  9.13255160096E-03  9.72155057500E-03  1.03485367192E-02  1.10159599955E-02
  1.17264283748E-02  1.24827180279E-02  1.32877841730E-02  1.41447726234E-02
  1.50570320803E-02  1.60281272172E-02  1.70618526095E-02  1.81622475617E-02
  1.93336118909E-02  2.05805227288E-02  2.19078524064E-02  2.33207874934E-02
  2.48248490643E-02  2.64259142725E-02  2.81302393149E-02  2.99444838787E-02
  3.18757371641E-02  3.39315455851E-02  3.61199422578E-02  3.84494783899E-02
  4.09292566943E-02  4.35689669587E-02  4.63789239083E-02  4.93701075110E-02
  5.25542058816E-02  5.59436609538E-02  5.95517170969E-02  6.33924728687E-02
  6.74809361059E-02  7.18330825673E-02  7.64659183599E-02  8.13975463901E-02
  8.66472371018E-02  9.22355037754E-02  9.81841826844E-02  1.04516518421E-01
  1.11257254724E-01  1.18432731169E-01  1.26070986084E-01  1.34201866116E-01
  1.42857142857E-01  1.52070636988E-01  1.61878350438E-01  1.72318607060E-01
  1.83432202384E-01  1.95262563025E-01  2.07855916374E-01  2.21261471233E-01
  2.35531610100E-01  2.50722093851E-01  2.66892279633E-01  2.84105352797E-01
  3.02428573802E-01  3.21933541030E-01  3.42696470567E-01  3.64798494009E-01
  3.88325975494E-01  4.13370849167E-01  4.40030978417E-01  4.68410538277E-01
  4.98620422495E-01  5.30778676849E-01  5.65010960417E-01  6.01451036592E-01
  6.40241295763E-01  6.81533311710E-01  7.25488433883E-01  7.72278417877E-01
  8.22086096572E-01  8.75106094555E-01  9.31545588619E-01  9.91625117314E-01
  1.05557944270E+00  1.12365846771E+00  1.19612821259E+00  1.27327185446E+00
  1.35539083377E+00  1.44280603221E+00  1.53585902658E+00  1.63491342348E+00
  1.74035628010E+00  1.85259961671E+00  1.97208202658E+00  2.09927038983E+00
  2.23466169774E+00  2.37878499480E+00  2.53220344592E+00  2.69551653704E+00
  2.86936241760E+00  3.05442039416E+00  3.25141358479E+00  3.46111174466E+00
  3.68433427388E+00  3.92195341935E+00  4.17489768303E+00  4.44415545014E+00
  4.73077885124E+00  5.03588787351E+00  5.36067473709E+00  5.70640855369E+00
  6.07444028572E+00  6.46620802518E+00  6.88324261301E+00  7.32717362094E+00
  7.79973571902E+00  8.30277545392E+00  8.83825846434E+00  9.40827716177E+00
  1.00150589067E+01  1.06609747119E+01  1.13485485075E+01  1.20804670030E+01
  1.28595901858E+01  1.36889624967E+01  1.45718247261E+01  1.55116266773E+01
  1.65120406467E+01  1.75769757739E+01  1.87105933158E+01  1.99173229078E+01
  2.12018798718E+01  2.25692836422E+01  2.40248773788E+01  2.55743488460E+01
  2.72237526369E+01  2.89795338330E+01  3.08485531872E+01  3.28381139334E+01
  3.49559903235E+01  3.72104580053E+01  3.96103263604E+01  4.21649729266E+01
  4.48843800408E+01  4.77791738454E+01  5.08606658101E+01  5.41408969317E+01
  5.76326847847E+01
  </PP_R>
  <PP_RAB>
  1.63532490078E-04  1.74079429541E-04  1.85306588158E-04  1.97257836295E-04
  2.09979873714E-04  2.23522412053E-04  2.37938369075E-04  2.53284075444E-04
  2.69619494842E-04  2.87008458276E-04  3.05518913497E-04  3.25223190512E-04
  3.46198284212E-04  3.68526155230E-04  3.92294050209E-04  4.17594842714E-04
  4.44527396142E-04  4.73196950030E-04  5.03715531284E-04  5.36202391922E-04
  5.70784475060E-04  6.07596910938E-04  6.46783544949E-04  6.88497499717E-04
  7.32901773428E-04  7.80169876745E-04  8.30486510809E-04  8.84048288963E-04
  9.41064505017E-04  1.00175795107E-03  1.06636578810E-03  1.13514047261E-03
  1.20835074318E-03  1.28628267055E-03  1.36924077540E-03  1.45754921834E-03
  1.55155306652E-03  1.65161964203E-03  1.75813995718E-03  1.87153024242E-03
  1.99223357275E-03  2.12072159907E-03  2.25749639111E-03  2.40309239937E-03
  2.55807854339E-03  2.72306043492E-03  2.89868274427E-03  3.08563171944E-03
  3.28463786760E-03  3.49647880961E-03  3.72198231856E-03  3.96202955430E-03
  4.21755850662E-03  4.48956766045E-03  4.77911989749E-03  5.08734664938E-03
  5.41545231886E-03  5.76471898596E-03  6.13651141778E-03  6.53228240131E-03
  6.95357842028E-03  7.40204569804E-03  7.87943663022E-03  8.38761663226E-03
  8.92857142857E-03  9.50441481177E-03  1.01173969024E-02  1.07699129413E-02
  1.14645126490E-02  1.22039101891E-02  1.29909947734E-02  1.38288419521E-02
  1.47207256313E-02  1.56701308657E-02  1.66807674771E-02  1.77565845498E-02
  1.89017858626E-02  2.01208463144E-02  2.14185294104E-02  2.27999058756E-02
  2.42703734684E-02  2.58356780730E-02  2.75019361511E-02  2.92756586423E-02
  3.11637764059E-02  3.31736673030E-02  3.53131850261E-02  3.75906897870E-02
  4.00150809852E-02  4.25958319819E-02  4.53430271177E-02  4.82674011173E-02
  5.13803810358E-02  5.46941309097E-02  5.82215992887E-02  6.19765698321E-02
  6.59737151690E-02  7.02286542317E-02  7.47580132869E-02  7.95794909036E-02
  8.47119271103E-02  9.01753770132E-02  9.59911891614E-02  1.02182088967E-01
  1.08772267506E-01  1.15787476044E-01  1.23255126661E-01  1.31204399364E-01
  1.39666356109E-01  1.48674062175E-01  1.58262715370E-01  1.68469783565E-01
  1.79335151100E-01  1.90901274635E-01  2.03213349049E-01  2.16319484041E-01
  2.30270892118E-01  2.45122088709E-01  2.60931105190E-01  2.77759715634E-01
  2.95673678203E-01  3.14742992095E-01  3.35042171068E-01  3.56650534606E-01
  3.79652517858E-01  4.04138001574E-01  4.30202663313E-01  4.57948351309E-01
  4.87483482439E-01  5.18923465870E-01  5.52391154021E-01  5.88017322611E-01
  6.25941181667E-01  6.66310919493E-01  7.09284281717E-01  7.55029187685E-01
  8.03724386612E-01  8.55560156045E-01  9.10739045381E-01  9.69476667328E-01
  1.03200254042E+00  1.09856098587E+00  1.16941208224E+00  1.24483268174E+00
  1.32511749199E+00  1.41058022764E+00  1.50155483618E+00  1.59839680287E+00
  1.70148453981E+00  1.81122086456E+00  1.92803457420E+00  2.05238212084E+00
  2.18474939522E+00  2.32565362533E+00  2.47564539753E+00  2.63531080791E+00
  2.80527375255E+00  2.98619836534E+00  3.17879161313E+00  3.38380605823E+00
  3.60204279904E+00
  </PP_RAB>
</PP_MESH>


<PP_LOCAL>
 -3.08694444237E+01 -3.08694324385E+01 -3.08694188575E+01 -3.08694034684E+01
 -3.08693860302E+01 -3.08693662702E+01 -3.08693438794E+01 -3.08693185073E+01
 -3.08692897570E+01 -3.08692571789E+01 -3.08692202632E+01 -3.08691784325E+01
 -3.08691310325E+01 -3.08690773217E+01 -3.08690164599E+01 -3.08689474951E+01
 -3.08688693487E+01 -3.08687807984E+01 -3.08686804592E+01 -3.08685667620E+01
 -3.08684379287E+01 -3.08682919445E+01 -3.08681265267E+01 -3.08679390889E+01
 -3.08677267005E+01 -3.08674860411E+01 -3.08672133486E+01 -3.08669043603E+01
 -3.08665542471E+01 -3.08661575370E+01 -3.08657080307E+01 -3.08651987044E+01
 -3.08646216002E+01 -3.08639677017E+01 -3.08632267932E+01 -3.08623872997E+01
 -3.08614361057E+01 -3.08603583487E+01 -3.08591371850E+01 -3.08577535235E+01
 -3.08561857216E+01 -3.08544092379E+01 -3.08523962359E+01 -3.08501151276E+01
 -3.08475300486E+01 -3.08446002510E+01 -3.08412793971E+01 -3.08375147337E+01
 -3.08332461195E+01 -3.08284048716E+01 -3.08229123860E+01 -3.08166784731E+01
 -3.08095993323E+01 -3.08015550663E+01 -3.07924066039E+01 -3.07819918653E+01
 -3.07701209501E+01 -3.07565700718E+01 -3.07410738830E+01 -3.07233157451E+01
 -3.07029153865E+01 -3.06794132625E+01 -3.06522507808E+01 -3.06207453942E+01
 -3.05840593812E+01 -3.05411609595E+01 -3.04907762152E+01 -3.04313302144E+01
 -3.03608706227E+01 -3.02769080401E+01 -3.01765616202E+01 -3.00561944232E+01
 -2.99113653779E+01 -2.97366881400E+01 -2.95256859501E+01 -2.92706545696E+01
 -2.89625525851E+01 -2.85909480200E+01 -2.81440624171E+01 -2.76089679773E+01
 -2.69720086030E+01 -2.62195288235E+01 -2.53390002201E+01 -2.43206246873E+01
 -2.31594559553E+01 -2.18580013807E+01 -2.04291323353E+01 -1.88989379809E+01
 -1.73089125910E+01 -1.57165967276E+01 -1.41935281368E+01 -1.28191024495E+01
 -1.16686629491E+01 -1.07939603073E+01 -1.01951839015E+01 -9.79027929953E+00
 -9.40957201848E+00 -8.89980014453E+00 -8.36044770355E+00 -7.85384521645E+00
 -7.37797275466E+00 -6.93094968868E+00 -6.51101851516E+00 -6.11653346366E+00
 -5.74595041275E+00 -5.39782059844E+00 -5.07078304481E+00 -4.76355980312E+00
 -4.47495029288E+00 -4.20382675738E+00 -3.94912976453E+00 -3.70986408753E+00
 -3.48509478678E+00 -3.27394357163E+00 -3.07558535501E+00 -2.88924505430E+00
 -2.71419454326E+00 -2.54974981093E+00 -2.39526827484E+00 -2.25014630839E+00
 -2.11381683224E+00 -1.98574714354E+00 -1.86543680758E+00 -1.75241570504E+00
 -1.64624220559E+00 -1.54650143182E+00 -1.45280364708E+00 -1.36478272512E+00
 -1.28209471973E+00 -1.20441652745E+00 -1.13144462026E+00 -1.06289385596E+00
 -9.98496373143E-01 -9.38000536174E-01 -8.81169956974E-01 -8.27782568387E-01
 -7.77629758874E-01 -7.30515553329E-01 -6.86255853388E-01 -6.44677713108E-01
 -6.05618665002E-01 -5.68926084990E-01 -5.34456596020E-01 -5.02075507812E-01
 -4.71656290562E-01 -4.43080080514E-01 -4.16235215513E-01 -3.91016798660E-01
 -3.67326288445E-01 -3.45071113683E-01 -3.24164311797E-01 -3.04524189002E-01
 -2.86074001094E-01 -2.68741653560E-01 -2.52459419878E-01 -2.37163676864E-01
 -2.22794656072E-01 -2.09296210239E-01 -1.96615593896E-01 -1.84703257258E-01
 -1.73512652612E-01
</PP_LOCAL>


<PP_NONLOCAL>
  <PP_BETA>
    1    0             Beta    L
   133
  5.78257162695E-02  6.15551947795E-02  6.55252126319E-02  6.97512848553E-02
  7.42499285220E-02  7.90387216920E-02  8.41363828582E-02  8.95628375783E-02
  9.53392953579E-02  1.01488331658E-01  1.08033982717E-01  1.15001840371E-01
  1.22419136626E-01  1.30314874355E-01  1.38719922116E-01  1.47667144852E-01
  1.57191526897E-01  1.67330315482E-01  1.78123166799E-01  1.89612299758E-01
  2.01842657416E-01  2.14862099153E-01  2.28721572342E-01  2.43475327566E-01
  2.59181136375E-01  2.75900496206E-01  2.93698878835E-01  3.12646091528E-01
  3.32816348540E-01  3.54288783306E-01  3.77147601720E-01  4.01482594011E-01
  4.27389338848E-01  4.54969612129E-01  4.84331974696E-01  5.15591949389E-01
  5.48872786669E-01  5.84305742143E-01  6.22030762530E-01  6.62197066922E-01
  7.04963699433E-01  7.50500359653E-01  7.98987996889E-01  8.50619755568E-01
  9.05601653969E-01  9.64153710067E-01  1.02651076610E+00  1.09292364555E+00
  1.16366032527E+00  1.23900710989E+00  1.31926996981E+00  1.40477594184E+00
  1.49587461065E+00  1.59293957498E+00  1.69637011954E+00  1.80659265132E+00
  1.92406219815E+00  2.04926381801E+00  2.18271356032E+00  2.32495898431E+00
  2.47657893876E+00  2.63818212764E+00  2.81040468520E+00  2.99390325478E+00
  3.18934777153E+00  3.39740707024E+00  3.61872809570E+00  3.85390732628E+00
  4.10344881079E+00  4.36770552091E+00  4.64679846794E+00  4.94050734784E+00
  5.24812237374E+00  5.56824668962E+00  5.89853829858E+00  6.23537673088E+00
  6.57344185018E+00  6.90519327558E+00  7.22025558268E+00  7.50472215383E+00
  7.74044009393E+00  7.90439039014E+00  7.96837898331E+00  7.89939333426E+00
  7.66116344473E+00  7.21765848146E+00  6.53936846610E+00  5.61306377553E+00
  4.45495510740E+00  3.12536804674E+00  1.73988587843E+00  4.67878480263E-01
 -4.93451621689E-01 -9.78497449581E-01 -9.41032966253E-01 -5.36304308640E-01
 -1.18307404994E-01  0.00000000000E+00  0.00000000000E+00  0.00000000000E+00
  0.00000000000E+00  0.00000000000E+00  0.00000000000E+00  0.00000000000E+00
  0.00000000000E+00  0.00000000000E+00  0.00000000000E+00  0.00000000000E+00
  0.00000000000E+00  0.00000000000E+00  0.00000000000E+00  0.00000000000E+00
  0.00000000000E+00  0.00000000000E+00  0.00000000000E+00  0.00000000000E+00
  0.00000000000E+00  0.00000000000E+00  0.00000000000E+00  0.00000000000E+00
  0.00000000000E+00  0.00000000000E+00  0.00000000000E+00  0.00000000000E+00
  0.00000000000E+00  0.00000000000E+00  0.00000000000E+00  0.00000000000E+00
  0.00000000000E+00  0.00000000000E+00  0.00000000000E+00  0.00000000000E+00
  0.00000000000E+00
  </PP_BETA>
  <PP_DIJ>
    1                  Number of nonzero Dij
    1    1  7.38133300193E-01
  </PP_DIJ>
</PP_NONLOCAL>


<PP_PSWFC>
2S    0  2.00          Wavefunction
  2.25637260000E-03  2.40189770000E-03  2.55680870000E-03  2.72171100000E-03
  2.89724910000E-03  3.08410890000E-03  3.28302080000E-03  3.49476230000E-03
  3.72016100000E-03  3.96009780000E-03  4.21551060000E-03  4.48739800000E-03
  4.77682260000E-03  5.08491610000E-03  5.41288300000E-03  5.76200570000E-03
  6.13364930000E-03  6.52926720000E-03  6.95040680000E-03  7.39871550000E-03
  7.87594700000E-03  8.38396880000E-03  8.92476890000E-03  9.50046420000E-03
  1.01133090000E-02  1.07657030000E-02  1.14602010000E-02  1.21995270000E-02
  1.29865770000E-02  1.38244390000E-02  1.47163990000E-02  1.56659610000E-02
  1.66768550000E-02  1.77530530000E-02  1.88987920000E-02  2.01185810000E-02
  2.14172310000E-02  2.27998660000E-02  2.42719500000E-02  2.58393100000E-02
  2.75081580000E-02  2.92851240000E-02  3.11772800000E-02  3.31921780000E-02
  3.53378780000E-02  3.76229940000E-02  4.00567290000E-02  4.26489240000E-02
  4.54101090000E-02  4.83515560000E-02  5.14853410000E-02  5.48244120000E-02
  5.83826650000E-02  6.21750260000E-02  6.62175500000E-02  7.05275230000E-02
  7.51235830000E-02  8.00258600000E-02  8.52561290000E-02  9.08379870000E-02
  9.67970570000E-02  1.03161220000E-01  1.09960910000E-01  1.17229370000E-01
  1.25003080000E-01  1.33322150000E-01  1.42230790000E-01  1.51777910000E-01
  1.62017770000E-01  1.73010730000E-01  1.84824110000E-01  1.97533200000E-01
  2.11222360000E-01  2.25986200000E-01  2.41930860000E-01  2.59175270000E-01
  2.77852280000E-01  2.98109350000E-01  3.20108650000E-01  3.44025710000E-01
  3.70046030000E-01  3.98358260000E-01  4.29142260000E-01  4.62549700000E-01
  4.98674420000E-01  5.37509440000E-01  5.78888270000E-01  6.22410700000E-01
  6.67358500000E-01  7.12616740000E-01  7.56630230000E-01  7.97439850000E-01
  8.32848600000E-01  8.60744680000E-01  8.79537360000E-01  8.88542230000E-01
  8.88040670000E-01  8.78799040000E-01  8.61378010000E-01  8.36269040000E-01
  8.04113820000E-01  7.65705110000E-01  7.21960280000E-01  6.73890800000E-01
  6.22569240000E-01  5.69095240000E-01  5.14561690000E-01  4.60022460000E-01
  4.06462500000E-01  3.54771480000E-01  3.05721530000E-01  2.59949890000E-01
  2.17947120000E-01  1.80051200000E-01  1.46447990000E-01  1.17177850000E-01
  9.21482620000E-02  7.11516770000E-02  5.38874390000E-02  3.99864370000E-02
  2.90367550000E-02  2.06086180000E-02  1.42769790000E-02  9.64041370000E-03
  6.33539920000E-03  4.04554710000E-03  2.50592140000E-03  1.50299960000E-03
  8.71192630000E-04  4.87012620000E-04  2.61988920000E-04  1.35307640000E-04
  6.69216780000E-05  3.16116240000E-05  1.42202050000E-05  6.07265620000E-06
  2.45311620000E-06  9.34458060000E-07  3.34596570000E-07  1.12759160000E-07
  3.76631010000E-08  1.16980630000E-08  3.36285550000E-09  8.90287440000E-10
  2.15909480000E-10  4.76952820000E-11  9.53950440000E-12  1.71647980000E-12
  2.75962700000E-13  3.93555590000E-14  4.94023520000E-15  5.41377600000E-16
  5.13403510000E-17  4.17419460000E-18  2.88091260000E-19  1.67009490000E-20
  8.04118600000E-22  3.17735740000E-23  1.01728520000E-24  2.60349550000E-26
  5.24970590000E-28
2P    1  3.00          Wavefunction
  2.89739990000E-05  3.28317760000E-05  3.72031910000E-05  4.21566290000E-05
  4.77695790000E-05  5.41298450000E-05  6.13369200000E-05  6.95035390000E-05
  7.87574480000E-05  8.92433910000E-05  1.01125380000E-04  1.14589270000E-04
  1.29845610000E-04  1.47133030000E-04  1.66721860000E-04  1.88918420000E-04
  2.14069800000E-04  2.42569250000E-04  2.74862330000E-04  3.11453870000E-04
  3.52915810000E-04  3.99896180000E-04  4.53129120000E-04  5.13446350000E-04
  5.81790130000E-04  6.59227870000E-04  7.46968740000E-04  8.46382420000E-04
  9.59020360000E-04  1.08663980000E-03  1.23123100000E-03  1.39504770000E-03
  1.58064240000E-03  1.79090510000E-03  2.02910800000E-03  2.29895520000E-03
  2.60463970000E-03  2.95090710000E-03  3.34312720000E-03  3.78737530000E-03
  4.29052350000E-03  4.86034300000E-03  5.50561960000E-03  6.23628320000E-03
  7.06355240000E-03  8.00009710000E-03  9.06021950000E-03  1.02600560000E-02
  1.16178020000E-02  1.31539600000E-02  1.48916140000E-02  1.68567350000E-02
  1.90785070000E-02  2.15896910000E-02  2.44270130000E-02  2.76315790000E-02
  3.12493210000E-02  3.53314550000E-02  3.99349550000E-02  4.51230280000E-02
  5.09655710000E-02  5.75395900000E-02  6.49295470000E-02  7.32275990000E-02
  8.25336720000E-02  9.29552960000E-02  1.04607130000E-01  1.17610050000E-01
  1.32089660000E-01  1.48174130000E-01  1.65991040000E-01  1.85663200000E-01
  2.07303050000E-01  2.31005520000E-01  2.56839130000E-01  2.84835210000E-01
  3.14975230000E-01  3.47176600000E-01  3.81277470000E-01  4.17021700000E-01
  4.54045790000E-01  4.91870230000E-01  5.29898670000E-01  5.67428500000E-01
  6.03676820000E-01  6.37824410000E-01  6.69078190000E-01  6.96748340000E-01
  7.20330600000E-01  7.39577620000E-01  7.54537700000E-01  7.65536820000E-01
  7.73083900000E-01  7.77694740000E-01  7.79662680000E-01  7.78862500000E-01
  7.74748830000E-01  7.66706730000E-01  7.54547970000E-01  7.38368290000E-01
  7.18350130000E-01  6.94739040000E-01  6.67836690000E-01  6.37992760000E-01
  6.05596400000E-01  5.71067480000E-01  5.34848090000E-01  4.97394340000E-01
  4.59168460000E-01  4.20631310000E-01  3.82234910000E-01  3.44415080000E-01
  3.07583930000E-01  2.72122380000E-01  2.38372610000E-01  2.06630960000E-01
  1.77141460000E-01  1.50090460000E-01  1.25602930000E-01  1.03740810000E-01
  8.45035660000E-02  6.78314710000E-02  5.36111840000E-02  4.16836410000E-02
  3.18536830000E-02  2.39008270000E-02  1.75904350000E-02  1.26845430000E-02
  8.95162740000E-03  6.17474680000E-03  4.15767440000E-03  2.72884740000E-03
  1.74318490000E-03  1.08200800000E-03  6.51432140000E-04  3.79675160000E-04
  2.13755650000E-04  1.16100850000E-04  6.07970640000E-05  3.08309080000E-05
  1.55812200000E-05  7.52594020000E-06  3.46398960000E-06  1.51453510000E-06
  6.26920220000E-07  2.44808040000E-07  8.98402300000E-08  3.08598470000E-08
  9.87934320000E-09  2.93418780000E-09  8.04563110000E-10  2.02626370000E-10
  4.66125010000E-11  9.73716840000E-12  1.83559310000E-12  3.10205130000E-13
  4.66638170000E-14  6.20158440000E-15  7.22334400000E-16  7.31114600000E-17
  6.37241560000E-18
</PP_PSWFC>


<PP_RHOATOM>
  1.01849530979E-05  1.15414588991E-05  1.30786936891E-05  1.48207530791E-05
  1.67949504929E-05  1.90322455345E-05  2.15677377997E-05  2.44412192928E-05
  2.76978039387E-05  3.13886423196E-05  3.55717382649E-05  4.03128737232E-05
  4.56866479511E-05  5.17776878736E-05  5.86819932792E-05  6.65084898819E-05
  7.53807851086E-05  8.54391798611E-05  9.68429572723E-05  1.09772992639E-04
  1.24434731000E-04  1.41061616543E-04  1.59918977835E-04  1.81308521494E-04
  2.05573477125E-04  2.33104466322E-04  2.64346300816E-04  2.99806007650E-04
  3.40061524507E-04  3.85772585494E-04  4.37692588380E-04  4.96683142363E-04
  5.63730276572E-04  6.39963804873E-04  7.26680515946E-04  8.25370187942E-04
  9.37748011315E-04  1.06579133737E-03  1.21178461203E-03  1.37837251754E-03
  1.56862328882E-03  1.78610577762E-03  2.03498111794E-03  2.32011504522E-03
  2.64721256061E-03  3.02298401588E-03  3.45534580852E-03  3.95366768408E-03
  4.52907596872E-03  5.19482592629E-03  5.96676117835E-03  6.86388084687E-03
  7.90903943305E-03  9.12981198863E-03  1.05595647483E-02  1.22387754751E-02
  1.42166656344E-02  1.65532116747E-02  1.93216169567E-02  2.26113427321E-02
  2.65318087698E-02  3.12168878759E-02  3.68303416769E-02  4.35722941471E-02
  5.16869610604E-02  6.14716525246E-02  7.32871501886E-02  8.75694395109E-02
  1.04842550428E-01  1.25732143794E-01  1.50978979355E-01  1.81451201707E-01
  2.18153434346E-01  2.62230175992E-01  3.14960098138E-01  3.77736931726E-01
  4.52031965543E-01  5.39333143878E-01  6.41056622998E-01  7.58428673095E-01
  8.92340866888E-01  1.04318757610E+00  1.21070396004E+00  1.39382975778E+00
  1.59062946334E+00  1.79829273015E+00  2.01322013129E+00  2.23116490683E+00
  2.44736325493E+00  2.65657040427E+00  2.85296003206E+00  3.02996049706E+00
  3.18024973036E+00  3.29619013417E+00  3.37079361903E+00  3.39889497071E+00
  3.37793971191E+00  3.30809313489E+00  3.19197206932E+00  3.03425500956E+00
  2.84127879884E+00  2.62059563206E+00  2.38047082533E+00  2.12936190609E+00
  1.87542591627E+00  1.62609298452E+00  1.38773490376E+00  1.16544471580E+00
  9.62930551789E-01  7.82517702900E-01  6.25241887079E-01  4.91013132616E-01
  3.78825516215E-01  2.86988638333E-01  2.13358531145E-01  1.55550357953E-01
  1.11119894932E-01  7.77065608289E-02  5.31360002377E-02  3.54842972663E-02
  2.31088242820E-02  1.46527556458E-02  9.03014140838E-03  5.39845293366E-03
  3.12424592804E-03  1.74648149653E-03  9.40829494594E-04  4.87210908952E-04
  2.41912852522E-04  1.14856856716E-04  5.19960456377E-05  2.23764407123E-05
  9.12503780874E-06  3.51422252574E-06  1.27349592754E-06  4.32533435670E-07
  1.37086469279E-07  4.04399685359E-08  1.10890728828E-08  2.85166009357E-09
  7.28326087084E-10  1.69919601371E-10  3.59976944643E-11  6.88145129262E-12
  1.17908697997E-12  1.79792933896E-13  2.42138009614E-14  2.85699047648E-15
  2.92804266342E-16  2.58283741401E-17  1.94196539397E-18  1.23172337459E-19
  6.51817574843E-21  2.84437345350E-22  1.01082060863E-23  2.88681668035E-25
  6.53253545103E-27  1.15378947211E-28  1.56530095627E-30  1.60358567500E-32
  1.21823041737E-34
</PP_RHOATOM>
