                                                                                     
                             WELCOME TO ABACUS                                       
                                                                                     
               'Atomic-orbital Based Ab-initio Computation at UStc'                  
                                                                                     
                     Website: http://abacus.ustc.edu.cn/                             
                                                                                     
    Version: Parallel, in development
    Processor Number is 2
    Start Time is Fri Jul 30 18:13:54 2021
                                                                                     
 ------------------------------------------------------------------------------------

 READING GENERAL INFORMATION
                           global_out_dir = OUT.ABACUS/
                           global_in_card = INPUT
                               pseudo_dir = ./
                              pseudo_type = auto
                                    DRANK = 1
                                    DSIZE = 2
                                   DCOLOR = 1
                                    GRANK = 1
                                    GSIZE = 1




 >>>>>>>>>>>>>>>>>>>>>>>>>>>>>>>>>>>>>>>>>>>>>>>>>>>>>>>>>>>>>>>>>>>>>>
 |                                                                    |
 | Reading atom information in unitcell:                              |
 | From the input file and the structure file we know the number of   |
 | different elments in this unitcell, then we list the detail        |
 | information for each element, especially the zeta and polar atomic |
 | orbital number for each element. The total atom number is counted. |
 | We calculate the nearest atom distance for each atom and show the  |
 | Cartesian and Direct coordinates for each atom. We list the file   |
 | address for atomic orbitals. The volume and the lattice vectors    |
 | in real and reciprocal space is also shown.                        |
 |                                                                    |
 <<<<<<<<<<<<<<<<<<<<<<<<<<<<<<<<<<<<<<<<<<<<<<<<<<<<<<<<<<<<<<<<<<<<<<




 READING UNITCELL INFORMATION
                                    ntype = 1
                 atom label for species 1 = Si
                  lattice constant (Bohr) = 1.88977
              lattice constant (Angstrom) = 1.00002

 READING ATOM TYPE 1
                               atom label = Si
                      start magnetization = FALSE
                      L=0, number of zeta = 2
                      L=1, number of zeta = 2
                      L=2, number of zeta = 1
             number of atom for this type = 2

                        TOTAL ATOM NUMBER = 2

 DIRECT COORDINATES
         atom                   x                   y                   z                 mag                  vx                  vy                  vz
     taud_Si1               0.125               0.125               0.125                   0                   0                   0                   0
     taud_Si2               0.875               0.875               0.875                   0                   0                   0                   0


 READING ORBITAL FILE NAMES FOR LCAO
 orbital file: orb_Si.dat

                          Volume (Bohr^3) = 268.14
                             Volume (A^3) = 39.7343

 Lattice vectors: (Cartesian coordinate: in unit of a_0)
                   +0            +2.70834            +2.70834
             +2.70834                  +0            +2.70834
             +2.70834            +2.70834                  +0
 Reciprocal vectors: (Cartesian coordinate: in unit of 2 pi/a_0)
            -0.184615           +0.184615           +0.184615
            +0.184615           -0.184615           +0.184615
            +0.184615           +0.184615           -0.184615




 >>>>>>>>>>>>>>>>>>>>>>>>>>>>>>>>>>>>>>>>>>>>>>>>>>>>>>>>>>>>>>>>>>>>>>
 |                                                                    |
 | Reading pseudopotentials files:                                    |
 | The pseudopotential file is in UPF format. The 'NC' indicates that |
 | the type of pseudopotential is 'norm conserving'. Functional of    |
 | exchange and correlation is decided by 4 given parameters in UPF   |
 | file.  We also read in the 'core correction' if there exists.      |
 | Also we can read the valence electrons number and the maximal      |
 | angular momentum used in this pseudopotential. We also read in the |
 | trail wave function, trail atomic density and local-pseudopotential|
 | on logrithmic grid. The non-local pseudopotential projector is also|
 | read in if there is any.                                           |
 |                                                                    |
 <<<<<<<<<<<<<<<<<<<<<<<<<<<<<<<<<<<<<<<<<<<<<<<<<<<<<<<<<<<<<<<<<<<<<<




                PAO radial cut off (Bohr) = 15

 Read in pseudopotential file is Si_ONCV_PBE_FR-1.1.upf
                     pseudopotential type = NC
                            functional Ex = PBE
                            functional Ec = 
                          functional GCEx = 
                          functional GCEc = 
                 nonlocal core correction = 0
                        valence electrons = 4
                                     lmax = 1
                           number of zeta = 0
                     number of projectors = 4
                           L of projector = 0
                           L of projector = 0
                           L of projector = 1
                           L of projector = 1
     initial pseudo atomic orbital number = 0
                                   NLOCAL = 26

 SETUP THE ELECTRONS NUMBER
            electron number of element Si = 4
      total electron number of element Si = 8
                           occupied bands = 4
                                   NLOCAL = 26
                                   NBANDS = 5
                                   NBANDS = 5
 DONE : SETUP UNITCELL Time : 0.127451 (SEC)





 >>>>>>>>>>>>>>>>>>>>>>>>>>>>>>>>>>>>>>>>>>>>>>>>>>>>>>>>>>>>>>>>>>>>>>
 |                                                                    |
 | Setup K-points                                                     |
 | We setup the k-points according to input parameters.               |
 | The reduced k-points are set according to symmetry operations.     |
 | We treat the spin as another set of k-points.                      |
 |                                                                    |
 <<<<<<<<<<<<<<<<<<<<<<<<<<<<<<<<<<<<<<<<<<<<<<<<<<<<<<<<<<<<<<<<<<<<<<





 SETUP K-POINTS
                                    nspin = 1
                   Input type of k points = Monkhorst-Pack(Gamma)
                                   nkstot = 512

  KPOINTS            DIRECT_X            DIRECT_Y            DIRECT_Z              WEIGHT
        1                   0                   0                   0          0.00195312
        2               0.125                   0                   0          0.00195312
        3                0.25                   0                   0          0.00195312
        4               0.375                   0                   0          0.00195312
        5                 0.5                   0                   0          0.00195312
        6               0.625                   0                   0          0.00195312
        7                0.75                   0                   0          0.00195312
        8               0.875                   0                   0          0.00195312
        9                   0               0.125                   0          0.00195312
       10               0.125               0.125                   0          0.00195312
       11                0.25               0.125                   0          0.00195312
       12               0.375               0.125                   0          0.00195312
       13                 0.5               0.125                   0          0.00195312
       14               0.625               0.125                   0          0.00195312
       15                0.75               0.125                   0          0.00195312
       16               0.875               0.125                   0          0.00195312
       17                   0                0.25                   0          0.00195312
       18               0.125                0.25                   0          0.00195312
       19                0.25                0.25                   0          0.00195312
       20               0.375                0.25                   0          0.00195312
       21                 0.5                0.25                   0          0.00195312
       22               0.625                0.25                   0          0.00195312
       23                0.75                0.25                   0          0.00195312
       24               0.875                0.25                   0          0.00195312
       25                   0               0.375                   0          0.00195312
       26               0.125               0.375                   0          0.00195312
       27                0.25               0.375                   0          0.00195312
       28               0.375               0.375                   0          0.00195312
       29                 0.5               0.375                   0          0.00195312
       30               0.625               0.375                   0          0.00195312
       31                0.75               0.375                   0          0.00195312
       32               0.875               0.375                   0          0.00195312
       33                   0                 0.5                   0          0.00195312
       34               0.125                 0.5                   0          0.00195312
       35                0.25                 0.5                   0          0.00195312
       36               0.375                 0.5                   0          0.00195312
       37                 0.5                 0.5                   0          0.00195312
       38               0.625                 0.5                   0          0.00195312
       39                0.75                 0.5                   0          0.00195312
       40               0.875                 0.5                   0          0.00195312
       41                   0               0.625                   0          0.00195312
       42               0.125               0.625                   0          0.00195312
       43                0.25               0.625                   0          0.00195312
       44               0.375               0.625                   0          0.00195312
       45                 0.5               0.625                   0          0.00195312
       46               0.625               0.625                   0          0.00195312
       47                0.75               0.625                   0          0.00195312
       48               0.875               0.625                   0          0.00195312
       49                   0                0.75                   0          0.00195312
       50               0.125                0.75                   0          0.00195312
       51                0.25                0.75                   0          0.00195312
       52               0.375                0.75                   0          0.00195312
       53                 0.5                0.75                   0          0.00195312
       54               0.625                0.75                   0          0.00195312
       55                0.75                0.75                   0          0.00195312
       56               0.875                0.75                   0          0.00195312
       57                   0               0.875                   0          0.00195312
       58               0.125               0.875                   0          0.00195312
       59                0.25               0.875                   0          0.00195312
       60               0.375               0.875                   0          0.00195312
       61                 0.5               0.875                   0          0.00195312
       62               0.625               0.875                   0          0.00195312
       63                0.75               0.875                   0          0.00195312
       64               0.875               0.875                   0          0.00195312
       65                   0                   0               0.125          0.00195312
       66               0.125                   0               0.125          0.00195312
       67                0.25                   0               0.125          0.00195312
       68               0.375                   0               0.125          0.00195312
       69                 0.5                   0               0.125          0.00195312
       70               0.625                   0               0.125          0.00195312
       71                0.75                   0               0.125          0.00195312
       72               0.875                   0               0.125          0.00195312
       73                   0               0.125               0.125          0.00195312
       74               0.125               0.125               0.125          0.00195312
       75                0.25               0.125               0.125          0.00195312
       76               0.375               0.125               0.125          0.00195312
       77                 0.5               0.125               0.125          0.00195312
       78               0.625               0.125               0.125          0.00195312
       79                0.75               0.125               0.125          0.00195312
       80               0.875               0.125               0.125          0.00195312
       81                   0                0.25               0.125          0.00195312
       82               0.125                0.25               0.125          0.00195312
       83                0.25                0.25               0.125          0.00195312
       84               0.375                0.25               0.125          0.00195312
       85                 0.5                0.25               0.125          0.00195312
       86               0.625                0.25               0.125          0.00195312
       87                0.75                0.25               0.125          0.00195312
       88               0.875                0.25               0.125          0.00195312
       89                   0               0.375               0.125          0.00195312
       90               0.125               0.375               0.125          0.00195312
       91                0.25               0.375               0.125          0.00195312
       92               0.375               0.375               0.125          0.00195312
       93                 0.5               0.375               0.125          0.00195312
       94               0.625               0.375               0.125          0.00195312
       95                0.75               0.375               0.125          0.00195312
       96               0.875               0.375               0.125          0.00195312
       97                   0                 0.5               0.125          0.00195312
       98               0.125                 0.5               0.125          0.00195312
       99                0.25                 0.5               0.125          0.00195312
      100               0.375                 0.5               0.125          0.00195312
      101                 0.5                 0.5               0.125          0.00195312
      102               0.625                 0.5               0.125          0.00195312
      103                0.75                 0.5               0.125          0.00195312
      104               0.875                 0.5               0.125          0.00195312
      105                   0               0.625               0.125          0.00195312
      106               0.125               0.625               0.125          0.00195312
      107                0.25               0.625               0.125          0.00195312
      108               0.375               0.625               0.125          0.00195312
      109                 0.5               0.625               0.125          0.00195312
      110               0.625               0.625               0.125          0.00195312
      111                0.75               0.625               0.125          0.00195312
      112               0.875               0.625               0.125          0.00195312
      113                   0                0.75               0.125          0.00195312
      114               0.125                0.75               0.125          0.00195312
      115                0.25                0.75               0.125          0.00195312
      116               0.375                0.75               0.125          0.00195312
      117                 0.5                0.75               0.125          0.00195312
      118               0.625                0.75               0.125          0.00195312
      119                0.75                0.75               0.125          0.00195312
      120               0.875                0.75               0.125          0.00195312
      121                   0               0.875               0.125          0.00195312
      122               0.125               0.875               0.125          0.00195312
      123                0.25               0.875               0.125          0.00195312
      124               0.375               0.875               0.125          0.00195312
      125                 0.5               0.875               0.125          0.00195312
      126               0.625               0.875               0.125          0.00195312
      127                0.75               0.875               0.125          0.00195312
      128               0.875               0.875               0.125          0.00195312
      129                   0                   0                0.25          0.00195312
      130               0.125                   0                0.25          0.00195312
      131                0.25                   0                0.25          0.00195312
      132               0.375                   0                0.25          0.00195312
      133                 0.5                   0                0.25          0.00195312
      134               0.625                   0                0.25          0.00195312
      135                0.75                   0                0.25          0.00195312
      136               0.875                   0                0.25          0.00195312
      137                   0               0.125                0.25          0.00195312
      138               0.125               0.125                0.25          0.00195312
      139                0.25               0.125                0.25          0.00195312
      140               0.375               0.125                0.25          0.00195312
      141                 0.5               0.125                0.25          0.00195312
      142               0.625               0.125                0.25          0.00195312
      143                0.75               0.125                0.25          0.00195312
      144               0.875               0.125                0.25          0.00195312
      145                   0                0.25                0.25          0.00195312
      146               0.125                0.25                0.25          0.00195312
      147                0.25                0.25                0.25          0.00195312
      148               0.375                0.25                0.25          0.00195312
      149                 0.5                0.25                0.25          0.00195312
      150               0.625                0.25                0.25          0.00195312
      151                0.75                0.25                0.25          0.00195312
      152               0.875                0.25                0.25          0.00195312
      153                   0               0.375                0.25          0.00195312
      154               0.125               0.375                0.25          0.00195312
      155                0.25               0.375                0.25          0.00195312
      156               0.375               0.375                0.25          0.00195312
      157                 0.5               0.375                0.25          0.00195312
      158               0.625               0.375                0.25          0.00195312
      159                0.75               0.375                0.25          0.00195312
      160               0.875               0.375                0.25          0.00195312
      161                   0                 0.5                0.25          0.00195312
      162               0.125                 0.5                0.25          0.00195312
      163                0.25                 0.5                0.25          0.00195312
      164               0.375                 0.5                0.25          0.00195312
      165                 0.5                 0.5                0.25          0.00195312
      166               0.625                 0.5                0.25          0.00195312
      167                0.75                 0.5                0.25          0.00195312
      168               0.875                 0.5                0.25          0.00195312
      169                   0               0.625                0.25          0.00195312
      170               0.125               0.625                0.25          0.00195312
      171                0.25               0.625                0.25          0.00195312
      172               0.375               0.625                0.25          0.00195312
      173                 0.5               0.625                0.25          0.00195312
      174               0.625               0.625                0.25          0.00195312
      175                0.75               0.625                0.25          0.00195312
      176               0.875               0.625                0.25          0.00195312
      177                   0                0.75                0.25          0.00195312
      178               0.125                0.75                0.25          0.00195312
      179                0.25                0.75                0.25          0.00195312
      180               0.375                0.75                0.25          0.00195312
      181                 0.5                0.75                0.25          0.00195312
      182               0.625                0.75                0.25          0.00195312
      183                0.75                0.75                0.25          0.00195312
      184               0.875                0.75                0.25          0.00195312
      185                   0               0.875                0.25          0.00195312
      186               0.125               0.875                0.25          0.00195312
      187                0.25               0.875                0.25          0.00195312
      188               0.375               0.875                0.25          0.00195312
      189                 0.5               0.875                0.25          0.00195312
      190               0.625               0.875                0.25          0.00195312
      191                0.75               0.875                0.25          0.00195312
      192               0.875               0.875                0.25          0.00195312
      193                   0                   0               0.375          0.00195312
      194               0.125                   0               0.375          0.00195312
      195                0.25                   0               0.375          0.00195312
      196               0.375                   0               0.375          0.00195312
      197                 0.5                   0               0.375          0.00195312
      198               0.625                   0               0.375          0.00195312
      199                0.75                   0               0.375          0.00195312
      200               0.875                   0               0.375          0.00195312
      201                   0               0.125               0.375          0.00195312
      202               0.125               0.125               0.375          0.00195312
      203                0.25               0.125               0.375          0.00195312
      204               0.375               0.125               0.375          0.00195312
      205                 0.5               0.125               0.375          0.00195312
      206               0.625               0.125               0.375          0.00195312
      207                0.75               0.125               0.375          0.00195312
      208               0.875               0.125               0.375          0.00195312
      209                   0                0.25               0.375          0.00195312
      210               0.125                0.25               0.375          0.00195312
      211                0.25                0.25               0.375          0.00195312
      212               0.375                0.25               0.375          0.00195312
      213                 0.5                0.25               0.375          0.00195312
      214               0.625                0.25               0.375          0.00195312
      215                0.75                0.25               0.375          0.00195312
      216               0.875                0.25               0.375          0.00195312
      217                   0               0.375               0.375          0.00195312
      218               0.125               0.375               0.375          0.00195312
      219                0.25               0.375               0.375          0.00195312
      220               0.375               0.375               0.375          0.00195312
      221                 0.5               0.375               0.375          0.00195312
      222               0.625               0.375               0.375          0.00195312
      223                0.75               0.375               0.375          0.00195312
      224               0.875               0.375               0.375          0.00195312
      225                   0                 0.5               0.375          0.00195312
      226               0.125                 0.5               0.375          0.00195312
      227                0.25                 0.5               0.375          0.00195312
      228               0.375                 0.5               0.375          0.00195312
      229                 0.5                 0.5               0.375          0.00195312
      230               0.625                 0.5               0.375          0.00195312
      231                0.75                 0.5               0.375          0.00195312
      232               0.875                 0.5               0.375          0.00195312
      233                   0               0.625               0.375          0.00195312
      234               0.125               0.625               0.375          0.00195312
      235                0.25               0.625               0.375          0.00195312
      236               0.375               0.625               0.375          0.00195312
      237                 0.5               0.625               0.375          0.00195312
      238               0.625               0.625               0.375          0.00195312
      239                0.75               0.625               0.375          0.00195312
      240               0.875               0.625               0.375          0.00195312
      241                   0                0.75               0.375          0.00195312
      242               0.125                0.75               0.375          0.00195312
      243                0.25                0.75               0.375          0.00195312
      244               0.375                0.75               0.375          0.00195312
      245                 0.5                0.75               0.375          0.00195312
      246               0.625                0.75               0.375          0.00195312
      247                0.75                0.75               0.375          0.00195312
      248               0.875                0.75               0.375          0.00195312
      249                   0               0.875               0.375          0.00195312
      250               0.125               0.875               0.375          0.00195312
      251                0.25               0.875               0.375          0.00195312
      252               0.375               0.875               0.375          0.00195312
      253                 0.5               0.875               0.375          0.00195312
      254               0.625               0.875               0.375          0.00195312
      255                0.75               0.875               0.375          0.00195312
      256               0.875               0.875               0.375          0.00195312
      257                   0                   0                 0.5          0.00195312
      258               0.125                   0                 0.5          0.00195312
      259                0.25                   0                 0.5          0.00195312
      260               0.375                   0                 0.5          0.00195312
      261                 0.5                   0                 0.5          0.00195312
      262               0.625                   0                 0.5          0.00195312
      263                0.75                   0                 0.5          0.00195312
      264               0.875                   0                 0.5          0.00195312
      265                   0               0.125                 0.5          0.00195312
      266               0.125               0.125                 0.5          0.00195312
      267                0.25               0.125                 0.5          0.00195312
      268               0.375               0.125                 0.5          0.00195312
      269                 0.5               0.125                 0.5          0.00195312
      270               0.625               0.125                 0.5          0.00195312
      271                0.75               0.125                 0.5          0.00195312
      272               0.875               0.125                 0.5          0.00195312
      273                   0                0.25                 0.5          0.00195312
      274               0.125                0.25                 0.5          0.00195312
      275                0.25                0.25                 0.5          0.00195312
      276               0.375                0.25                 0.5          0.00195312
      277                 0.5                0.25                 0.5          0.00195312
      278               0.625                0.25                 0.5          0.00195312
      279                0.75                0.25                 0.5          0.00195312
      280               0.875                0.25                 0.5          0.00195312
      281                   0               0.375                 0.5          0.00195312
      282               0.125               0.375                 0.5          0.00195312
      283                0.25               0.375                 0.5          0.00195312
      284               0.375               0.375                 0.5          0.00195312
      285                 0.5               0.375                 0.5          0.00195312
      286               0.625               0.375                 0.5          0.00195312
      287                0.75               0.375                 0.5          0.00195312
      288               0.875               0.375                 0.5          0.00195312
      289                   0                 0.5                 0.5          0.00195312
      290               0.125                 0.5                 0.5          0.00195312
      291                0.25                 0.5                 0.5          0.00195312
      292               0.375                 0.5                 0.5          0.00195312
      293                 0.5                 0.5                 0.5          0.00195312
      294               0.625                 0.5                 0.5          0.00195312
      295                0.75                 0.5                 0.5          0.00195312
      296               0.875                 0.5                 0.5          0.00195312
      297                   0               0.625                 0.5          0.00195312
      298               0.125               0.625                 0.5          0.00195312
      299                0.25               0.625                 0.5          0.00195312
      300               0.375               0.625                 0.5          0.00195312
      301                 0.5               0.625                 0.5          0.00195312
      302               0.625               0.625                 0.5          0.00195312
      303                0.75               0.625                 0.5          0.00195312
      304               0.875               0.625                 0.5          0.00195312
      305                   0                0.75                 0.5          0.00195312
      306               0.125                0.75                 0.5          0.00195312
      307                0.25                0.75                 0.5          0.00195312
      308               0.375                0.75                 0.5          0.00195312
      309                 0.5                0.75                 0.5          0.00195312
      310               0.625                0.75                 0.5          0.00195312
      311                0.75                0.75                 0.5          0.00195312
      312               0.875                0.75                 0.5          0.00195312
      313                   0               0.875                 0.5          0.00195312
      314               0.125               0.875                 0.5          0.00195312
      315                0.25               0.875                 0.5          0.00195312
      316               0.375               0.875                 0.5          0.00195312
      317                 0.5               0.875                 0.5          0.00195312
      318               0.625               0.875                 0.5          0.00195312
      319                0.75               0.875                 0.5          0.00195312
      320               0.875               0.875                 0.5          0.00195312
      321                   0                   0               0.625          0.00195312
      322               0.125                   0               0.625          0.00195312
      323                0.25                   0               0.625          0.00195312
      324               0.375                   0               0.625          0.00195312
      325                 0.5                   0               0.625          0.00195312
      326               0.625                   0               0.625          0.00195312
      327                0.75                   0               0.625          0.00195312
      328               0.875                   0               0.625          0.00195312
      329                   0               0.125               0.625          0.00195312
      330               0.125               0.125               0.625          0.00195312
      331                0.25               0.125               0.625          0.00195312
      332               0.375               0.125               0.625          0.00195312
      333                 0.5               0.125               0.625          0.00195312
      334               0.625               0.125               0.625          0.00195312
      335                0.75               0.125               0.625          0.00195312
      336               0.875               0.125               0.625          0.00195312
      337                   0                0.25               0.625          0.00195312
      338               0.125                0.25               0.625          0.00195312
      339                0.25                0.25               0.625          0.00195312
      340               0.375                0.25               0.625          0.00195312
      341                 0.5                0.25               0.625          0.00195312
      342               0.625                0.25               0.625          0.00195312
      343                0.75                0.25               0.625          0.00195312
      344               0.875                0.25               0.625          0.00195312
      345                   0               0.375               0.625          0.00195312
      346               0.125               0.375               0.625          0.00195312
      347                0.25               0.375               0.625          0.00195312
      348               0.375               0.375               0.625          0.00195312
      349                 0.5               0.375               0.625          0.00195312
      350               0.625               0.375               0.625          0.00195312
      351                0.75               0.375               0.625          0.00195312
      352               0.875               0.375               0.625          0.00195312
      353                   0                 0.5               0.625          0.00195312
      354               0.125                 0.5               0.625          0.00195312
      355                0.25                 0.5               0.625          0.00195312
      356               0.375                 0.5               0.625          0.00195312
      357                 0.5                 0.5               0.625          0.00195312
      358               0.625                 0.5               0.625          0.00195312
      359                0.75                 0.5               0.625          0.00195312
      360               0.875                 0.5               0.625          0.00195312
      361                   0               0.625               0.625          0.00195312
      362               0.125               0.625               0.625          0.00195312
      363                0.25               0.625               0.625          0.00195312
      364               0.375               0.625               0.625          0.00195312
      365                 0.5               0.625               0.625          0.00195312
      366               0.625               0.625               0.625          0.00195312
      367                0.75               0.625               0.625          0.00195312
      368               0.875               0.625               0.625          0.00195312
      369                   0                0.75               0.625          0.00195312
      370               0.125                0.75               0.625          0.00195312
      371                0.25                0.75               0.625          0.00195312
      372               0.375                0.75               0.625          0.00195312
      373                 0.5                0.75               0.625          0.00195312
      374               0.625                0.75               0.625          0.00195312
      375                0.75                0.75               0.625          0.00195312
      376               0.875                0.75               0.625          0.00195312
      377                   0               0.875               0.625          0.00195312
      378               0.125               0.875               0.625          0.00195312
      379                0.25               0.875               0.625          0.00195312
      380               0.375               0.875               0.625          0.00195312
      381                 0.5               0.875               0.625          0.00195312
      382               0.625               0.875               0.625          0.00195312
      383                0.75               0.875               0.625          0.00195312
      384               0.875               0.875               0.625          0.00195312
      385                   0                   0                0.75          0.00195312
      386               0.125                   0                0.75          0.00195312
      387                0.25                   0                0.75          0.00195312
      388               0.375                   0                0.75          0.00195312
      389                 0.5                   0                0.75          0.00195312
      390               0.625                   0                0.75          0.00195312
      391                0.75                   0                0.75          0.00195312
      392               0.875                   0                0.75          0.00195312
      393                   0               0.125                0.75          0.00195312
      394               0.125               0.125                0.75          0.00195312
      395                0.25               0.125                0.75          0.00195312
      396               0.375               0.125                0.75          0.00195312
      397                 0.5               0.125                0.75          0.00195312
      398               0.625               0.125                0.75          0.00195312
      399                0.75               0.125                0.75          0.00195312
      400               0.875               0.125                0.75          0.00195312
      401                   0                0.25                0.75          0.00195312
      402               0.125                0.25                0.75          0.00195312
      403                0.25                0.25                0.75          0.00195312
      404               0.375                0.25                0.75          0.00195312
      405                 0.5                0.25                0.75          0.00195312
      406               0.625                0.25                0.75          0.00195312
      407                0.75                0.25                0.75          0.00195312
      408               0.875                0.25                0.75          0.00195312
      409                   0               0.375                0.75          0.00195312
      410               0.125               0.375                0.75          0.00195312
      411                0.25               0.375                0.75          0.00195312
      412               0.375               0.375                0.75          0.00195312
      413                 0.5               0.375                0.75          0.00195312
      414               0.625               0.375                0.75          0.00195312
      415                0.75               0.375                0.75          0.00195312
      416               0.875               0.375                0.75          0.00195312
      417                   0                 0.5                0.75          0.00195312
      418               0.125                 0.5                0.75          0.00195312
      419                0.25                 0.5                0.75          0.00195312
      420               0.375                 0.5                0.75          0.00195312
      421                 0.5                 0.5                0.75          0.00195312
      422               0.625                 0.5                0.75          0.00195312
      423                0.75                 0.5                0.75          0.00195312
      424               0.875                 0.5                0.75          0.00195312
      425                   0               0.625                0.75          0.00195312
      426               0.125               0.625                0.75          0.00195312
      427                0.25               0.625                0.75          0.00195312
      428               0.375               0.625                0.75          0.00195312
      429                 0.5               0.625                0.75          0.00195312
      430               0.625               0.625                0.75          0.00195312
      431                0.75               0.625                0.75          0.00195312
      432               0.875               0.625                0.75          0.00195312
      433                   0                0.75                0.75          0.00195312
      434               0.125                0.75                0.75          0.00195312
      435                0.25                0.75                0.75          0.00195312
      436               0.375                0.75                0.75          0.00195312
      437                 0.5                0.75                0.75          0.00195312
      438               0.625                0.75                0.75          0.00195312
      439                0.75                0.75                0.75          0.00195312
      440               0.875                0.75                0.75          0.00195312
      441                   0               0.875                0.75          0.00195312
      442               0.125               0.875                0.75          0.00195312
      443                0.25               0.875                0.75          0.00195312
      444               0.375               0.875                0.75          0.00195312
      445                 0.5               0.875                0.75          0.00195312
      446               0.625               0.875                0.75          0.00195312
      447                0.75               0.875                0.75          0.00195312
      448               0.875               0.875                0.75          0.00195312
      449                   0                   0               0.875          0.00195312
      450               0.125                   0               0.875          0.00195312
      451                0.25                   0               0.875          0.00195312
      452               0.375                   0               0.875          0.00195312
      453                 0.5                   0               0.875          0.00195312
      454               0.625                   0               0.875          0.00195312
      455                0.75                   0               0.875          0.00195312
      456               0.875                   0               0.875          0.00195312
      457                   0               0.125               0.875          0.00195312
      458               0.125               0.125               0.875          0.00195312
      459                0.25               0.125               0.875          0.00195312
      460               0.375               0.125               0.875          0.00195312
      461                 0.5               0.125               0.875          0.00195312
      462               0.625               0.125               0.875          0.00195312
      463                0.75               0.125               0.875          0.00195312
      464               0.875               0.125               0.875          0.00195312
      465                   0                0.25               0.875          0.00195312
      466               0.125                0.25               0.875          0.00195312
      467                0.25                0.25               0.875          0.00195312
      468               0.375                0.25               0.875          0.00195312
      469                 0.5                0.25               0.875          0.00195312
      470               0.625                0.25               0.875          0.00195312
      471                0.75                0.25               0.875          0.00195312
      472               0.875                0.25               0.875          0.00195312
      473                   0               0.375               0.875          0.00195312
      474               0.125               0.375               0.875          0.00195312
      475                0.25               0.375               0.875          0.00195312
      476               0.375               0.375               0.875          0.00195312
      477                 0.5               0.375               0.875          0.00195312
      478               0.625               0.375               0.875          0.00195312
      479                0.75               0.375               0.875          0.00195312
      480               0.875               0.375               0.875          0.00195312
      481                   0                 0.5               0.875          0.00195312
      482               0.125                 0.5               0.875          0.00195312
      483                0.25                 0.5               0.875          0.00195312
      484               0.375                 0.5               0.875          0.00195312
      485                 0.5                 0.5               0.875          0.00195312
      486               0.625                 0.5               0.875          0.00195312
      487                0.75                 0.5               0.875          0.00195312
      488               0.875                 0.5               0.875          0.00195312
      489                   0               0.625               0.875          0.00195312
      490               0.125               0.625               0.875          0.00195312
      491                0.25               0.625               0.875          0.00195312
      492               0.375               0.625               0.875          0.00195312
      493                 0.5               0.625               0.875          0.00195312
      494               0.625               0.625               0.875          0.00195312
      495                0.75               0.625               0.875          0.00195312
      496               0.875               0.625               0.875          0.00195312
      497                   0                0.75               0.875          0.00195312
      498               0.125                0.75               0.875          0.00195312
      499                0.25                0.75               0.875          0.00195312
      500               0.375                0.75               0.875          0.00195312
      501                 0.5                0.75               0.875          0.00195312
      502               0.625                0.75               0.875          0.00195312
      503                0.75                0.75               0.875          0.00195312
      504               0.875                0.75               0.875          0.00195312
      505                   0               0.875               0.875          0.00195312
      506               0.125               0.875               0.875          0.00195312
      507                0.25               0.875               0.875          0.00195312
      508               0.375               0.875               0.875          0.00195312
      509                 0.5               0.875               0.875          0.00195312
      510               0.625               0.875               0.875          0.00195312
      511                0.75               0.875               0.875          0.00195312
      512               0.875               0.875               0.875          0.00195312

           k-point number in this process = 512
       minimum distributed K point number = 512

  KPOINTS         CARTESIAN_X         CARTESIAN_Y         CARTESIAN_Z              WEIGHT
        1                   0                   0                   0          0.00390625
        2          -0.0230769           0.0230769           0.0230769          0.00390625
        3          -0.0461538           0.0461538           0.0461538          0.00390625
        4          -0.0692307           0.0692307           0.0692307          0.00390625
        5          -0.0923076           0.0923076           0.0923076          0.00390625
        6           -0.115384            0.115384            0.115384          0.00390625
        7           -0.138461            0.138461            0.138461          0.00390625
        8           -0.161538            0.161538            0.161538          0.00390625
        9           0.0230769          -0.0230769           0.0230769          0.00390625
       10                   0                   0           0.0461538          0.00390625
       11          -0.0230769           0.0230769           0.0692307          0.00390625
       12          -0.0461538           0.0461538           0.0923076          0.00390625
       13          -0.0692307           0.0692307            0.115384          0.00390625
       14          -0.0923076           0.0923076            0.138461          0.00390625
       15           -0.115384            0.115384            0.161538          0.00390625
       16           -0.138461            0.138461            0.184615          0.00390625
       17           0.0461538          -0.0461538           0.0461538          0.00390625
       18           0.0230769          -0.0230769           0.0692307          0.00390625
       19                   0                   0           0.0923076          0.00390625
       20          -0.0230769           0.0230769            0.115384          0.00390625
       21          -0.0461538           0.0461538            0.138461          0.00390625
       22          -0.0692307           0.0692307            0.161538          0.00390625
       23          -0.0923076           0.0923076            0.184615          0.00390625
       24           -0.115384            0.115384            0.207692          0.00390625
       25           0.0692307          -0.0692307           0.0692307          0.00390625
       26           0.0461538          -0.0461538           0.0923076          0.00390625
       27           0.0230769          -0.0230769            0.115384          0.00390625
       28                   0                   0            0.138461          0.00390625
       29          -0.0230769           0.0230769            0.161538          0.00390625
       30          -0.0461538           0.0461538            0.184615          0.00390625
       31          -0.0692307           0.0692307            0.207692          0.00390625
       32          -0.0923076           0.0923076            0.230769          0.00390625
       33           0.0923076          -0.0923076           0.0923076          0.00390625
       34           0.0692307          -0.0692307            0.115384          0.00390625
       35           0.0461538          -0.0461538            0.138461          0.00390625
       36           0.0230769          -0.0230769            0.161538          0.00390625
       37                   0                   0            0.184615          0.00390625
       38          -0.0230769           0.0230769            0.207692          0.00390625
       39          -0.0461538           0.0461538            0.230769          0.00390625
       40          -0.0692307           0.0692307            0.253846          0.00390625
       41            0.115384           -0.115384            0.115384          0.00390625
       42           0.0923076          -0.0923076            0.138461          0.00390625
       43           0.0692307          -0.0692307            0.161538          0.00390625
       44           0.0461538          -0.0461538            0.184615          0.00390625
       45           0.0230769          -0.0230769            0.207692          0.00390625
       46                   0                   0            0.230769          0.00390625
       47          -0.0230769           0.0230769            0.253846          0.00390625
       48          -0.0461538           0.0461538            0.276923          0.00390625
       49            0.138461           -0.138461            0.138461          0.00390625
       50            0.115384           -0.115384            0.161538          0.00390625
       51           0.0923076          -0.0923076            0.184615          0.00390625
       52           0.0692307          -0.0692307            0.207692          0.00390625
       53           0.0461538          -0.0461538            0.230769          0.00390625
       54           0.0230769          -0.0230769            0.253846          0.00390625
       55                   0                   0            0.276923          0.00390625
       56          -0.0230769           0.0230769                 0.3          0.00390625
       57            0.161538           -0.161538            0.161538          0.00390625
       58            0.138461           -0.138461            0.184615          0.00390625
       59            0.115384           -0.115384            0.207692          0.00390625
       60           0.0923076          -0.0923076            0.230769          0.00390625
       61           0.0692307          -0.0692307            0.253846          0.00390625
       62           0.0461538          -0.0461538            0.276923          0.00390625
       63           0.0230769          -0.0230769                 0.3          0.00390625
       64                   0                   0            0.323076          0.00390625
       65           0.0230769           0.0230769          -0.0230769          0.00390625
       66                   0           0.0461538                   0          0.00390625
       67          -0.0230769           0.0692307           0.0230769          0.00390625
       68          -0.0461538           0.0923076           0.0461538          0.00390625
       69          -0.0692307            0.115384           0.0692307          0.00390625
       70          -0.0923076            0.138461           0.0923076          0.00390625
       71           -0.115384            0.161538            0.115384          0.00390625
       72           -0.138461            0.184615            0.138461          0.00390625
       73           0.0461538                   0                   0          0.00390625
       74           0.0230769           0.0230769           0.0230769          0.00390625
       75                   0           0.0461538           0.0461538          0.00390625
       76          -0.0230769           0.0692307           0.0692307          0.00390625
       77          -0.0461538           0.0923076           0.0923076          0.00390625
       78          -0.0692307            0.115384            0.115384          0.00390625
       79          -0.0923076            0.138461            0.138461          0.00390625
       80           -0.115384            0.161538            0.161538          0.00390625
       81           0.0692307          -0.0230769           0.0230769          0.00390625
       82           0.0461538                   0           0.0461538          0.00390625
       83           0.0230769           0.0230769           0.0692307          0.00390625
       84                   0           0.0461538           0.0923076          0.00390625
       85          -0.0230769           0.0692307            0.115384          0.00390625
       86          -0.0461538           0.0923076            0.138461          0.00390625
       87          -0.0692307            0.115384            0.161538          0.00390625
       88          -0.0923076            0.138461            0.184615          0.00390625
       89           0.0923076          -0.0461538           0.0461538          0.00390625
       90           0.0692307          -0.0230769           0.0692307          0.00390625
       91           0.0461538                   0           0.0923076          0.00390625
       92           0.0230769           0.0230769            0.115384          0.00390625
       93                   0           0.0461538            0.138461          0.00390625
       94          -0.0230769           0.0692307            0.161538          0.00390625
       95          -0.0461538           0.0923076            0.184615          0.00390625
       96          -0.0692307            0.115384            0.207692          0.00390625
       97            0.115384          -0.0692307           0.0692307          0.00390625
       98           0.0923076          -0.0461538           0.0923076          0.00390625
       99           0.0692307          -0.0230769            0.115384          0.00390625
      100           0.0461538                   0            0.138461          0.00390625
      101           0.0230769           0.0230769            0.161538          0.00390625
      102                   0           0.0461538            0.184615          0.00390625
      103          -0.0230769           0.0692307            0.207692          0.00390625
      104          -0.0461538           0.0923076            0.230769          0.00390625
      105            0.138461          -0.0923076           0.0923076          0.00390625
      106            0.115384          -0.0692307            0.115384          0.00390625
      107           0.0923076          -0.0461538            0.138461          0.00390625
      108           0.0692307          -0.0230769            0.161538          0.00390625
      109           0.0461538                   0            0.184615          0.00390625
      110           0.0230769           0.0230769            0.207692          0.00390625
      111                   0           0.0461538            0.230769          0.00390625
      112          -0.0230769           0.0692307            0.253846          0.00390625
      113            0.161538           -0.115384            0.115384          0.00390625
      114            0.138461          -0.0923076            0.138461          0.00390625
      115            0.115384          -0.0692307            0.161538          0.00390625
      116           0.0923076          -0.0461538            0.184615          0.00390625
      117           0.0692307          -0.0230769            0.207692          0.00390625
      118           0.0461538                   0            0.230769          0.00390625
      119           0.0230769           0.0230769            0.253846          0.00390625
      120                   0           0.0461538            0.276923          0.00390625
      121            0.184615           -0.138461            0.138461          0.00390625
      122            0.161538           -0.115384            0.161538          0.00390625
      123            0.138461          -0.0923076            0.184615          0.00390625
      124            0.115384          -0.0692307            0.207692          0.00390625
      125           0.0923076          -0.0461538            0.230769          0.00390625
      126           0.0692307          -0.0230769            0.253846          0.00390625
      127           0.0461538                   0            0.276923          0.00390625
      128           0.0230769           0.0230769                 0.3          0.00390625
      129           0.0461538           0.0461538          -0.0461538          0.00390625
      130           0.0230769           0.0692307          -0.0230769          0.00390625
      131                   0           0.0923076                   0          0.00390625
      132          -0.0230769            0.115384           0.0230769          0.00390625
      133          -0.0461538            0.138461           0.0461538          0.00390625
      134          -0.0692307            0.161538           0.0692307          0.00390625
      135          -0.0923076            0.184615           0.0923076          0.00390625
      136           -0.115384            0.207692            0.115384          0.00390625
      137           0.0692307           0.0230769          -0.0230769          0.00390625
      138           0.0461538           0.0461538                   0          0.00390625
      139           0.0230769           0.0692307           0.0230769          0.00390625
      140                   0           0.0923076           0.0461538          0.00390625
      141          -0.0230769            0.115384           0.0692307          0.00390625
      142          -0.0461538            0.138461           0.0923076          0.00390625
      143          -0.0692307            0.161538            0.115384          0.00390625
      144          -0.0923076            0.184615            0.138461          0.00390625
      145           0.0923076                   0                   0          0.00390625
      146           0.0692307           0.0230769           0.0230769          0.00390625
      147           0.0461538           0.0461538           0.0461538          0.00390625
      148           0.0230769           0.0692307           0.0692307          0.00390625
      149                   0           0.0923076           0.0923076          0.00390625
      150          -0.0230769            0.115384            0.115384          0.00390625
      151          -0.0461538            0.138461            0.138461          0.00390625
      152          -0.0692307            0.161538            0.161538          0.00390625
      153            0.115384          -0.0230769           0.0230769          0.00390625
      154           0.0923076                   0           0.0461538          0.00390625
      155           0.0692307           0.0230769           0.0692307          0.00390625
      156           0.0461538           0.0461538           0.0923076          0.00390625
      157           0.0230769           0.0692307            0.115384          0.00390625
      158                   0           0.0923076            0.138461          0.00390625
      159          -0.0230769            0.115384            0.161538          0.00390625
      160          -0.0461538            0.138461            0.184615          0.00390625
      161            0.138461          -0.0461538           0.0461538          0.00390625
      162            0.115384          -0.0230769           0.0692307          0.00390625
      163           0.0923076                   0           0.0923076          0.00390625
      164           0.0692307           0.0230769            0.115384          0.00390625
      165           0.0461538           0.0461538            0.138461          0.00390625
      166           0.0230769           0.0692307            0.161538          0.00390625
      167                   0           0.0923076            0.184615          0.00390625
      168          -0.0230769            0.115384            0.207692          0.00390625
      169            0.161538          -0.0692307           0.0692307          0.00390625
      170            0.138461          -0.0461538           0.0923076          0.00390625
      171            0.115384          -0.0230769            0.115384          0.00390625
      172           0.0923076                   0            0.138461          0.00390625
      173           0.0692307           0.0230769            0.161538          0.00390625
      174           0.0461538           0.0461538            0.184615          0.00390625
      175           0.0230769           0.0692307            0.207692          0.00390625
      176                   0           0.0923076            0.230769          0.00390625
      177            0.184615          -0.0923076           0.0923076          0.00390625
      178            0.161538          -0.0692307            0.115384          0.00390625
      179            0.138461          -0.0461538            0.138461          0.00390625
      180            0.115384          -0.0230769            0.161538          0.00390625
      181           0.0923076                   0            0.184615          0.00390625
      182           0.0692307           0.0230769            0.207692          0.00390625
      183           0.0461538           0.0461538            0.230769          0.00390625
      184           0.0230769           0.0692307            0.253846          0.00390625
      185            0.207692           -0.115384            0.115384          0.00390625
      186            0.184615          -0.0923076            0.138461          0.00390625
      187            0.161538          -0.0692307            0.161538          0.00390625
      188            0.138461          -0.0461538            0.184615          0.00390625
      189            0.115384          -0.0230769            0.207692          0.00390625
      190           0.0923076                   0            0.230769          0.00390625
      191           0.0692307           0.0230769            0.253846          0.00390625
      192           0.0461538           0.0461538            0.276923          0.00390625
      193           0.0692307           0.0692307          -0.0692307          0.00390625
      194           0.0461538           0.0923076          -0.0461538          0.00390625
      195           0.0230769            0.115384          -0.0230769          0.00390625
      196                   0            0.138461                   0          0.00390625
      197          -0.0230769            0.161538           0.0230769          0.00390625
      198          -0.0461538            0.184615           0.0461538          0.00390625
      199          -0.0692307            0.207692           0.0692307          0.00390625
      200          -0.0923076            0.230769           0.0923076          0.00390625
      201           0.0923076           0.0461538          -0.0461538          0.00390625
      202           0.0692307           0.0692307          -0.0230769          0.00390625
      203           0.0461538           0.0923076                   0          0.00390625
      204           0.0230769            0.115384           0.0230769          0.00390625
      205                   0            0.138461           0.0461538          0.00390625
      206          -0.0230769            0.161538           0.0692307          0.00390625
      207          -0.0461538            0.184615           0.0923076          0.00390625
      208          -0.0692307            0.207692            0.115384          0.00390625
      209            0.115384           0.0230769          -0.0230769          0.00390625
      210           0.0923076           0.0461538                   0          0.00390625
      211           0.0692307           0.0692307           0.0230769          0.00390625
      212           0.0461538           0.0923076           0.0461538          0.00390625
      213           0.0230769            0.115384           0.0692307          0.00390625
      214                   0            0.138461           0.0923076          0.00390625
      215          -0.0230769            0.161538            0.115384          0.00390625
      216          -0.0461538            0.184615            0.138461          0.00390625
      217            0.138461                   0                   0          0.00390625
      218            0.115384           0.0230769           0.0230769          0.00390625
      219           0.0923076           0.0461538           0.0461538          0.00390625
      220           0.0692307           0.0692307           0.0692307          0.00390625
      221           0.0461538           0.0923076           0.0923076          0.00390625
      222           0.0230769            0.115384            0.115384          0.00390625
      223                   0            0.138461            0.138461          0.00390625
      224          -0.0230769            0.161538            0.161538          0.00390625
      225            0.161538          -0.0230769           0.0230769          0.00390625
      226            0.138461                   0           0.0461538          0.00390625
      227            0.115384           0.0230769           0.0692307          0.00390625
      228           0.0923076           0.0461538           0.0923076          0.00390625
      229           0.0692307           0.0692307            0.115384          0.00390625
      230           0.0461538           0.0923076            0.138461          0.00390625
      231           0.0230769            0.115384            0.161538          0.00390625
      232                   0            0.138461            0.184615          0.00390625
      233            0.184615          -0.0461538           0.0461538          0.00390625
      234            0.161538          -0.0230769           0.0692307          0.00390625
      235            0.138461                   0           0.0923076          0.00390625
      236            0.115384           0.0230769            0.115384          0.00390625
      237           0.0923076           0.0461538            0.138461          0.00390625
      238           0.0692307           0.0692307            0.161538          0.00390625
      239           0.0461538           0.0923076            0.184615          0.00390625
      240           0.0230769            0.115384            0.207692          0.00390625
      241            0.207692          -0.0692307           0.0692307          0.00390625
      242            0.184615          -0.0461538           0.0923076          0.00390625
      243            0.161538          -0.0230769            0.115384          0.00390625
      244            0.138461                   0            0.138461          0.00390625
      245            0.115384           0.0230769            0.161538          0.00390625
      246           0.0923076           0.0461538            0.184615          0.00390625
      247           0.0692307           0.0692307            0.207692          0.00390625
      248           0.0461538           0.0923076            0.230769          0.00390625
      249            0.230769          -0.0923076           0.0923076          0.00390625
      250            0.207692          -0.0692307            0.115384          0.00390625
      251            0.184615          -0.0461538            0.138461          0.00390625
      252            0.161538          -0.0230769            0.161538          0.00390625
      253            0.138461                   0            0.184615          0.00390625
      254            0.115384           0.0230769            0.207692          0.00390625
      255           0.0923076           0.0461538            0.230769          0.00390625
      256           0.0692307           0.0692307            0.253846          0.00390625
      257           0.0923076           0.0923076          -0.0923076          0.00390625
      258           0.0692307            0.115384          -0.0692307          0.00390625
      259           0.0461538            0.138461          -0.0461538          0.00390625
      260           0.0230769            0.161538          -0.0230769          0.00390625
      261                   0            0.184615                   0          0.00390625
      262          -0.0230769            0.207692           0.0230769          0.00390625
      263          -0.0461538            0.230769           0.0461538          0.00390625
      264          -0.0692307            0.253846           0.0692307          0.00390625
      265            0.115384           0.0692307          -0.0692307          0.00390625
      266           0.0923076           0.0923076          -0.0461538          0.00390625
      267           0.0692307            0.115384          -0.0230769          0.00390625
      268           0.0461538            0.138461                   0          0.00390625
      269           0.0230769            0.161538           0.0230769          0.00390625
      270                   0            0.184615           0.0461538          0.00390625
      271          -0.0230769            0.207692           0.0692307          0.00390625
      272          -0.0461538            0.230769           0.0923076          0.00390625
      273            0.138461           0.0461538          -0.0461538          0.00390625
      274            0.115384           0.0692307          -0.0230769          0.00390625
      275           0.0923076           0.0923076                   0          0.00390625
      276           0.0692307            0.115384           0.0230769          0.00390625
      277           0.0461538            0.138461           0.0461538          0.00390625
      278           0.0230769            0.161538           0.0692307          0.00390625
      279                   0            0.184615           0.0923076          0.00390625
      280          -0.0230769            0.207692            0.115384          0.00390625
      281            0.161538           0.0230769          -0.0230769          0.00390625
      282            0.138461           0.0461538                   0          0.00390625
      283            0.115384           0.0692307           0.0230769          0.00390625
      284           0.0923076           0.0923076           0.0461538          0.00390625
      285           0.0692307            0.115384           0.0692307          0.00390625
      286           0.0461538            0.138461           0.0923076          0.00390625
      287           0.0230769            0.161538            0.115384          0.00390625
      288                   0            0.184615            0.138461          0.00390625
      289            0.184615                   0                   0          0.00390625
      290            0.161538           0.0230769           0.0230769          0.00390625
      291            0.138461           0.0461538           0.0461538          0.00390625
      292            0.115384           0.0692307           0.0692307          0.00390625
      293           0.0923076           0.0923076           0.0923076          0.00390625
      294           0.0692307            0.115384            0.115384          0.00390625
      295           0.0461538            0.138461            0.138461          0.00390625
      296           0.0230769            0.161538            0.161538          0.00390625
[...]
 [spin1_state]        5        8.97797        0.00000

 469/512 kpoint (Cartesian) = 0.115384 0.207692 -0.0230769 (2272 pws)
 [spin1_state]        1       -3.42260     0.00390625
 [spin1_state]        2       -1.66364     0.00390625
 [spin1_state]        3        1.60438     0.00390625
 [spin1_state]        4        2.85596     0.00390625
 [spin1_state]        5        9.60214        0.00000

 470/512 kpoint (Cartesian) = 0.0923076 0.230769 0.00000 (2259 pws)
 [spin1_state]        1       -3.81691     0.00390625
 [spin1_state]        2       -1.25292     0.00390625
 [spin1_state]        3        1.41305     0.00390625
 [spin1_state]        4        3.27961     0.00390625
 [spin1_state]        5        10.1778        0.00000

 471/512 kpoint (Cartesian) = 0.0692307 0.253846 0.0230769 (2259 pws)
 [spin1_state]        1       -4.82854     0.00390625
 [spin1_state]        2      -0.430682     0.00390625
 [spin1_state]        3        2.45145     0.00390625
 [spin1_state]        4        4.01322     0.00390625
 [spin1_state]        5        10.0989        0.00000

 472/512 kpoint (Cartesian) = 0.0461538 0.276923 0.0461538 (2268 pws)
 [spin1_state]        1       -5.56948     0.00390625
 [spin1_state]        2       0.200466     0.00390625
 [spin1_state]        3        4.13560     0.00390625
 [spin1_state]        4        4.39377     0.00390625
 [spin1_state]        5        9.35043        0.00000

 473/512 kpoint (Cartesian) = 0.230769 0.0923076 -0.0923076 (2291 pws)
 [spin1_state]        1       -4.87738     0.00390625
 [spin1_state]        2       -1.04502     0.00390625
 [spin1_state]        3        3.42884     0.00390625
 [spin1_state]        4        4.73736     0.00390625
 [spin1_state]        5        9.46325        0.00000

 474/512 kpoint (Cartesian) = 0.207692 0.115384 -0.0692307 (2293 pws)
 [spin1_state]        1       -4.82877     0.00390625
 [spin1_state]        2      -0.430735     0.00390625
 [spin1_state]        3        2.45141     0.00390625
 [spin1_state]        4        4.01335     0.00390625
 [spin1_state]        5        10.0992        0.00000

 475/512 kpoint (Cartesian) = 0.184615 0.138461 -0.0461538 (2285 pws)
 [spin1_state]        1       -4.40858     0.00390625
 [spin1_state]        2      -0.567303     0.00390625
 [spin1_state]        3        2.40460     0.00390625
 [spin1_state]        4        3.08016     0.00390625
 [spin1_state]        5        8.97812        0.00000

 476/512 kpoint (Cartesian) = 0.161538 0.161538 -0.0230769 (2286 pws)
 [spin1_state]        1       -3.62400     0.00390625
 [spin1_state]        2       -1.54975     0.00390625
 [spin1_state]        3        2.31852     0.00390625
 [spin1_state]        4        3.15839     0.00390625
 [spin1_state]        5        7.87760        0.00000

 477/512 kpoint (Cartesian) = 0.138461 0.184615 0.00000 (2286 pws)
 [spin1_state]        1       -2.57497     0.00390625
 [spin1_state]        2       -2.57480     0.00390625
 [spin1_state]        3        2.34017     0.00390625
 [spin1_state]        4        2.34020     0.00390625
 [spin1_state]        5        9.11977        0.00000

 478/512 kpoint (Cartesian) = 0.115384 0.207692 0.0230769 (2274 pws)
 [spin1_state]        1       -3.42260     0.00390625
 [spin1_state]        2       -1.66364     0.00390625
 [spin1_state]        3        1.60438     0.00390625
 [spin1_state]        4        2.85596     0.00390625
 [spin1_state]        5        9.60214        0.00000

 479/512 kpoint (Cartesian) = 0.0923076 0.230769 0.0461538 (2259 pws)
 [spin1_state]        1       -4.09390     0.00390625
 [spin1_state]        2       -1.50609     0.00390625
 [spin1_state]        3        2.30280     0.00390625
 [spin1_state]        4        3.75654     0.00390625
 [spin1_state]        5        10.2847        0.00000

 480/512 kpoint (Cartesian) = 0.0692307 0.253846 0.0692307 (2258 pws)
 [spin1_state]        1       -4.60212     0.00390625
 [spin1_state]        2       -1.46645     0.00390625
 [spin1_state]        3        3.63234     0.00390625
 [spin1_state]        4        4.41450     0.00390625
 [spin1_state]        5        9.30145        0.00000

 481/512 kpoint (Cartesian) = 0.253846 0.0692307 -0.0692307 (2291 pws)
 [spin1_state]        1       -4.60216     0.00390625
 [spin1_state]        2       -1.46644     0.00390625
 [spin1_state]        3        3.63228     0.00390625
 [spin1_state]        4        4.41456     0.00390625
 [spin1_state]        5        9.30188        0.00000

 482/512 kpoint (Cartesian) = 0.230769 0.0923076 -0.0461538 (2290 pws)
 [spin1_state]        1       -4.09409     0.00390625
 [spin1_state]        2       -1.50613     0.00390625
 [spin1_state]        3        2.30272     0.00390625
 [spin1_state]        4        3.75660     0.00390625
 [spin1_state]        5        10.2851        0.00000

 483/512 kpoint (Cartesian) = 0.207692 0.115384 -0.0230769 (2289 pws)
 [spin1_state]        1       -3.42277     0.00390625
 [spin1_state]        2       -1.66370     0.00390625
 [spin1_state]        3        1.60432     0.00390625
 [spin1_state]        4        2.85591     0.00390625
 [spin1_state]        5        9.60223        0.00000

 484/512 kpoint (Cartesian) = 0.184615 0.138461 0.00000 (2285 pws)
 [spin1_state]        1       -2.57500     0.00390625
 [spin1_state]        2       -2.57491     0.00390625
 [spin1_state]        3        2.34011     0.00390625
 [spin1_state]        4        2.34015     0.00390625
 [spin1_state]        5        9.11984        0.00000

 485/512 kpoint (Cartesian) = 0.161538 0.161538 0.0230769 (2292 pws)
 [spin1_state]        1       -3.62400     0.00390625
 [spin1_state]        2       -1.54975     0.00390625
 [spin1_state]        3        2.31852     0.00390625
 [spin1_state]        4        3.15839     0.00390625
 [spin1_state]        5        7.87760        0.00000

 486/512 kpoint (Cartesian) = 0.138461 0.184615 0.0461538 (2278 pws)
 [spin1_state]        1       -4.40844     0.00390625
 [spin1_state]        2      -0.567244     0.00390625
 [spin1_state]        3        2.40466     0.00390625
 [spin1_state]        4        3.08014     0.00390625
 [spin1_state]        5        8.97797        0.00000

 487/512 kpoint (Cartesian) = 0.115384 0.207692 0.0692307 (2285 pws)
 [spin1_state]        1       -4.82853     0.00390625
 [spin1_state]        2      -0.430660     0.00390625
 [spin1_state]        3        2.45148     0.00390625
 [spin1_state]        4        4.01326     0.00390625
 [spin1_state]        5        10.0989        0.00000

 488/512 kpoint (Cartesian) = 0.0923076 0.230769 0.0923076 (2271 pws)
 [spin1_state]        1       -4.87721     0.00390625
 [spin1_state]        2       -1.04496     0.00390625
 [spin1_state]        3        3.42891     0.00390625
 [spin1_state]        4        4.73723     0.00390625
 [spin1_state]        5        9.46288        0.00000

 489/512 kpoint (Cartesian) = 0.276923 0.0461538 -0.0461538 (2323 pws)
 [spin1_state]        1       -5.56930     0.00390625
 [spin1_state]        2       0.200481     0.00390625
 [spin1_state]        3        4.13555     0.00390625
 [spin1_state]        4        4.39378     0.00390625
 [spin1_state]        5        9.35047        0.00000

 490/512 kpoint (Cartesian) = 0.253846 0.0692307 -0.0230769 (2305 pws)
 [spin1_state]        1       -4.82861     0.00390625
 [spin1_state]        2      -0.430664     0.00390625
 [spin1_state]        3        2.45140     0.00390625
 [spin1_state]        4        4.01332     0.00390625
 [spin1_state]        5        10.0991        0.00000

 491/512 kpoint (Cartesian) = 0.230769 0.0923076 0.00000 (2300 pws)
 [spin1_state]        1       -3.81711     0.00390625
 [spin1_state]        2       -1.25288     0.00390625
 [spin1_state]        3        1.41301     0.00390625
 [spin1_state]        4        3.27961     0.00390625
 [spin1_state]        5        10.1778        0.00000

 492/512 kpoint (Cartesian) = 0.207692 0.115384 0.0230769 (2294 pws)
 [spin1_state]        1       -3.42277     0.00390625
 [spin1_state]        2       -1.66370     0.00390625
 [spin1_state]        3        1.60432     0.00390625
 [spin1_state]        4        2.85591     0.00390625
 [spin1_state]        5        9.60223        0.00000

 493/512 kpoint (Cartesian) = 0.184615 0.138461 0.0461538 (2291 pws)
 [spin1_state]        1       -4.40858     0.00390625
 [spin1_state]        2      -0.567303     0.00390625
 [spin1_state]        3        2.40460     0.00390625
 [spin1_state]        4        3.08016     0.00390625
 [spin1_state]        5        8.97812        0.00000

 494/512 kpoint (Cartesian) = 0.161538 0.161538 0.0692307 (2295 pws)
 [spin1_state]        1       -5.30675     0.00390625
 [spin1_state]        2       0.595122     0.00390625
 [spin1_state]        3        3.18660     0.00390625
 [spin1_state]        4        3.69466     0.00390625
 [spin1_state]        5        8.32100        0.00000

 495/512 kpoint (Cartesian) = 0.138461 0.184615 0.0923076 (2296 pws)
 [spin1_state]        1       -5.82383     0.00390625
 [spin1_state]        2        1.33677     0.00390625
 [spin1_state]        3        3.14581     0.00390625
 [spin1_state]        4        4.57187     0.00390625
 [spin1_state]        5        9.52294        0.00000

 496/512 kpoint (Cartesian) = 0.115384 0.207692 0.115384 (2291 pws)
 [spin1_state]        1       -5.91197     0.00390625
 [spin1_state]        2       0.952365     0.00390625
 [spin1_state]        3        3.60272     0.00390625
 [spin1_state]        4        5.27628     0.00390625
 [spin1_state]        5        9.84373        0.00000

 497/512 kpoint (Cartesian) = 0.300000 0.0230769 -0.0230769 (2322 pws)
 [spin1_state]        1       -6.48005     0.00390625
 [spin1_state]        2        2.55244     0.00390625
 [spin1_state]        3        4.69669     0.00390625
 [spin1_state]        4        4.79551     0.00390625
 [spin1_state]        5        9.19537        0.00000

 498/512 kpoint (Cartesian) = 0.276923 0.0461538 0.00000 (2321 pws)
 [spin1_state]        1       -5.82365     0.00390625
 [spin1_state]        2        1.33671     0.00390625
 [spin1_state]        3        3.14583     0.00390625
 [spin1_state]        4        4.57181     0.00390625
 [spin1_state]        5        9.52281        0.00000

 499/512 kpoint (Cartesian) = 0.253846 0.0692307 0.0230769 (2318 pws)
 [spin1_state]        1       -4.82861     0.00390625
 [spin1_state]        2      -0.430664     0.00390625
 [spin1_state]        3        2.45140     0.00390625
 [spin1_state]        4        4.01332     0.00390625
 [spin1_state]        5        10.0991        0.00000

 500/512 kpoint (Cartesian) = 0.230769 0.0923076 0.0461538 (2302 pws)
 [spin1_state]        1       -4.09409     0.00390625
 [spin1_state]        2       -1.50613     0.00390625
 [spin1_state]        3        2.30272     0.00390625
 [spin1_state]        4        3.75660     0.00390625
 [spin1_state]        5        10.2851        0.00000

 501/512 kpoint (Cartesian) = 0.207692 0.115384 0.0692307 (2308 pws)
 [spin1_state]        1       -4.82877     0.00390625
 [spin1_state]        2      -0.430735     0.00390625
 [spin1_state]        3        2.45141     0.00390625
 [spin1_state]        4        4.01335     0.00390625
 [spin1_state]        5        10.0992        0.00000

 502/512 kpoint (Cartesian) = 0.184615 0.138461 0.0923076 (2313 pws)
 [spin1_state]        1       -5.82406     0.00390625
 [spin1_state]        2        1.33673     0.00390625
 [spin1_state]        3        3.14585     0.00390625
 [spin1_state]        4        4.57189     0.00390625
 [spin1_state]        5        9.52306        0.00000

 503/512 kpoint (Cartesian) = 0.161538 0.161538 0.115384 (2298 pws)
 [spin1_state]        1       -6.48042     0.00390625
 [spin1_state]        2        2.55250     0.00390625
 [spin1_state]        3        4.69677     0.00390625
 [spin1_state]        4        4.79558     0.00390625
 [spin1_state]        5        9.19577        0.00000

 504/512 kpoint (Cartesian) = 0.138461 0.184615 0.138461 (2299 pws)
 [spin1_state]        1       -6.70467     0.00390625
 [spin1_state]        2        3.16593     0.00390625
 [spin1_state]        3        4.37519     0.00390625
 [spin1_state]        4        5.79824     0.00390625
 [spin1_state]        5        10.2124        0.00000

 505/512 kpoint (Cartesian) = 0.323076 0.00000 0.00000 (2341 pws)
 [spin1_state]        1       -7.00264     0.00390625
 [spin1_state]        2        4.68778     0.00390625
 [spin1_state]        3        5.26505     0.00390625
 [spin1_state]        4        5.26542     0.00390625
 [spin1_state]        5        9.06124        0.00000

 506/512 kpoint (Cartesian) = 0.300000 0.0230769 0.0230769 (2333 pws)
 [spin1_state]        1       -6.48005     0.00390625
 [spin1_state]        2        2.55244     0.00390625
 [spin1_state]        3        4.69669     0.00390625
 [spin1_state]        4        4.79551     0.00390625
 [spin1_state]        5        9.19537        0.00000

 507/512 kpoint (Cartesian) = 0.276923 0.0461538 0.0461538 (2337 pws)
 [spin1_state]        1       -5.56930     0.00390625
 [spin1_state]        2       0.200481     0.00390625
 [spin1_state]        3        4.13555     0.00390625
 [spin1_state]        4        4.39378     0.00390625
 [spin1_state]        5        9.35047        0.00000

 508/512 kpoint (Cartesian) = 0.253846 0.0692307 0.0692307 (2308 pws)
 [spin1_state]        1       -4.60216     0.00390625
 [spin1_state]        2       -1.46644     0.00390625
 [spin1_state]        3        3.63228     0.00390625
 [spin1_state]        4        4.41456     0.00390625
 [spin1_state]        5        9.30188        0.00000

 509/512 kpoint (Cartesian) = 0.230769 0.0923076 0.0923076 (2317 pws)
 [spin1_state]        1       -4.87738     0.00390625
 [spin1_state]        2       -1.04502     0.00390625
 [spin1_state]        3        3.42884     0.00390625
 [spin1_state]        4        4.73736     0.00390625
 [spin1_state]        5        9.46325        0.00000

 510/512 kpoint (Cartesian) = 0.207692 0.115384 0.115384 (2323 pws)
 [spin1_state]        1       -5.91229     0.00390625
 [spin1_state]        2       0.952335     0.00390625
 [spin1_state]        3        3.60270     0.00390625
 [spin1_state]        4        5.27633     0.00390625
 [spin1_state]        5        9.84418        0.00000

 511/512 kpoint (Cartesian) = 0.184615 0.138461 0.138461 (2320 pws)
 [spin1_state]        1       -6.70496     0.00390625
 [spin1_state]        2        3.16587     0.00390625
 [spin1_state]        3        4.37540     0.00390625
 [spin1_state]        4        5.79810     0.00390625
 [spin1_state]        5        10.2131        0.00000

 512/512 kpoint (Cartesian) = 0.161538 0.161538 0.161538 (2306 pws)
 [spin1_state]        1       -7.07947     0.00390625
 [spin1_state]        2        4.39665     0.00390625
 [spin1_state]        3        5.81635     0.00390625
 [spin1_state]        4        5.81653     0.00390625
 [spin1_state]        5        9.60677        0.00000

 EFERMI = 6.732164087629855 eV
 OUT.ABACUS/ final etot is -214.0653824333878 eV


 --------------------------------------------
 !FINAL_ETOT_IS -214.0653824333878 eV
 --------------------------------------------






  |CLASS_NAME---------|NAME---------------|TIME(Sec)-----|CALLS----|AVG------|PER%-------
                                      total       1.16e+03        11   1.1e+02   1.0e+02%
               Run_lcao           lcao_line        1.2e+03         1   1.2e+03    1.e+02%
            ORB_control      set_orb_tables            1.7         1       1.7      0.14%
          LCAO_Orbitals       Read_Orbitals           0.79         1      0.79     0.068%
            NOrbital_Lm       extra_uniform            1.0      1786   0.00058     0.090%
          Mathzone_Add1Cubic_Spline_Interpolation           0.37      1786   0.00021     0.032%
         ORB_gen_tables          gen_tables           0.87         1      0.87     0.075%
          ORB_table_phi          init_Table           0.48         1      0.48     0.042%
          ORB_table_phi      cal_ST_Phi12_R            6.1      3242    0.0019      0.52%
         ORB_table_beta     init_Table_Beta           0.18         1      0.18     0.016%
         ORB_table_beta       VNL_PhiBeta_R           0.18        26    0.0070     0.016%
        ORB_gaunt_table       init_Gaunt_CH           0.17         4     0.042     0.015%
        ORB_gaunt_table          init_Gaunt            2.3         4      0.57      0.20%
        ORB_gaunt_table        Get_Gaunt_SH            12.   3636325   3.4e-06       1.1%
                    FFT               FFT3D           0.32       372   0.00086     0.028%
              Potential            v_of_rho            3.9        28      0.14      0.34%
        Potential_Libxc                v_xc            3.9        28      0.14      0.33%
              LOOP_ions            opt_ions        1.1e+03         1   1.1e+03       99.%
              LOOP_elec     solve_elec_stru        1.1e+03         1   1.1e+03       99.%
            Grid_Driver           Find_atom           0.56     55430   1.0e-05     0.049%
              LOOP_elec       before_solver            1.3         1       1.3      0.11%
            LCAO_Hamilt   set_lcao_matrices            1.3         1       1.3      0.11%
        LCAO_gen_fixedH   build_Nonlocal_mu            1.3         1       1.3      0.11%
         ORB_gen_tables        snap_psibeta            1.0    373321   2.8e-06     0.090%
              LOOP_elec              solver        1.1e+03         1   1.1e+03       99.%
               ELEC_scf                 scf        1.1e+03         2   5.5e+02       95.%
          ELEC_cbands_k           cal_bands            64.        27       2.4       5.5%
                 Gint_k              vlocal            31.        27       1.1       2.7%
             Efficience              each_k            32.     13824    0.0023       2.7%
             Efficience                 H_k            22.     13824    0.0016       1.9%
            LCAO_Hamilt        calculate_Hk            22.     13824    0.0016       1.9%
                 Gint_k        folding_vl_k            1.9     13824   0.00014      0.17%
                 Gint_k              Distri           0.66     13824   4.8e-05     0.057%
               LCAO_nnr      folding_fixedH            19.     13824    0.0014       1.7%
             Efficience             diago_k            9.7     13824   0.00070      0.84%
      Diago_LCAO_Matrix             genelpa            16.      6912    0.0024       1.4%
      Diago_LCAO_Matrix            genelpa1            6.0     13824   0.00043      0.52%
      Diago_LCAO_Matrix            genelpa2            3.3     13824   0.00024      0.28%
      Diago_LCAO_Matrix    gath_eig_complex           0.13     13824   9.4e-06     0.011%
      Local_Orbital_Cha           sum_bands            20.        27      0.74       1.7%
            LCAO_Charge            cal_dk_k            4.2        27      0.15      0.36%
                 Gint_k           cal_rho_k            15.        27      0.57       1.3%
                 Charge             mix_rho           0.18        27    0.0066     0.015%
 ----------------------------------------------------------------------------------------

 CLASS_NAME---------|NAME---------------|MEMORY(MB)--------
                                         7274.
        ORB_table_phi               Jl(x)          921.9
               WF_igk                 igk          4.580
         Charge_Pulay                Rrho          3.375
        init_meshball        meshball_pos          2.980
         Charge_Pulay               dRrho          2.953
         Charge_Pulay                drho          2.953
        Grid_Meshcell        index2normal          2.875
        Grid_Meshcell         index2ucell          2.875
        ORB_table_phi         Table_SR&TR          1.225
 ----------------------------------------------------------
