<UPF version="2.0.1">
  <PP_INFO>

 This pseudopotential file has been produced using the code
 ONCVPSP  (Optimized Norm-Conservinng Vanderbilt PSeudopotential)
 fully-relativistic version 2.1.1, 03/26/2014 by D. R. Hamann
 The code is available through a link at URL www.mat-simresearch.com.
 Documentation with the package provides a full description of the
 input data below.

 While it is not required under the terms of the GNU GPL, it is
 suggested that you cite D. R. Hamann, Phys. Rev. B 88, 085117 (2013)
 in any publication using these pseudopotentials.

 -----

 This pseudopotential was produced with the SG15 1.0 and/or 1.1
 parameter sets, the Schlipf-Gygi norm-conserving pseudopotential
 library. For details of the construction and testing of the
 pseudopotential please refer to:

 M. Schlipf, F. Gygi, Comp. Phys. Comm. 196, 36 (2015)
 http://dx.doi.org/10.1016/j.cpc.2015.05.011

 The above authors kindly ask that you include this reference in all
 publications associated to this pseudopotential.

 Please note this fully-relativistic version does not employ the
 above self-consistent procedure at the fully-relativistic level.

 -----

 This pseudopotential was produced by Peter Scherpelz for the purpose
 of performing GW calculations with spin-orbit-coupling. Please see
 the publication:

 P. Scherpelz, M. Govoni, I. Hamada, G. Galli; J. Chem. Theory Comput. (2016)
 http://dx.doi.org/10.1021/acs.jctc.6b00114

 If you use these pseudopotentials in your work, we also kindly ask
 that you cite the above publication.

 -----

 This work is licensed under the Creative Commons Attribution-ShareAlike 
 4.0 International License. To view a copy of this license, visit 
 http://creativecommons.org/licenses/by-sa/4.0/ or send a letter to 
 Creative Commons, PO Box 1866, Mountain View, CA 94042, USA.

 The SG15 library is Copyright 2015 The Regents of the University of
 California.  Further modifications of these files are Copyright 2016
 Peter Scherpelz.

    <PP_INPUTFILE>
# ATOM AND REFERENCE CONFIGURATION
# atsym  z    nc    nv    iexc   psfile
  Si 14.00     3     2     4      upf
#
#   n    l    f        energy (Ha)
    1    0    2.00
    2    0    2.00
    2    1    6.00
    3    0    2.00
    3    1    2.00
#
# PSEUDOPOTENTIAL AND OPTIMIZATION
# lmax
    1
#
#   l,   rc,     ep,   ncon, nbas, qcut
    0    2.40   -0.40    5    8    5.11
    1    3.56   -0.15    5    8    3.50
#
# LOCAL POTENTIAL
# lloc, lpopt,  rc(5),   dvloc0
    4    5      1.28       0.00
#
# VANDERBILT-KLEINMAN-BYLANDER PROJECTORs
# l, nproj, debl
    0    2    0.5680
    1    2    1.0084
#
# MODEL CORE CHARGE
# icmod, fcfact
    0    0.00
#
# LOG DERIVATIVE ANALYSIS
# epsh1, epsh2, depsh
   -5.00    3.00    0.02
#
# OUTPUT GRID
# rlmax, drl
    6.00    0.01
#
# TEST CONFIGURATIONS
# ncnf
    0
# nvcnf
#   n    l    f
    </PP_INPUTFILE>
  </PP_INFO>
  <!--                               -->
  <!-- END OF HUMAN READABLE SECTION -->
  <!--                               -->
    <PP_HEADER
       generated="Generated using ONCVPSP code by D. R. Hamann"
       author="anonymous"
       date="150703"
       comment=""
       element="Si"
       pseudo_type="NC"
       relativistic="full"
       is_ultrasoft="F"
       is_paw="F"
       is_coulomb="F"
       has_so="T"
       has_wfc="F"
       has_gipaw="F"
       core_correction="F"
       functional="PBE"
       z_valence="    4.00"
       total_psenergy="  -3.74360500011E+00"
       rho_cutoff="   6.01000000000E+00"
       l_max="1"
       l_local="-1"
       mesh_size="   602"
       number_of_wfc="0"
       number_of_proj="6"/>
 <PP_MESH>
   <PP_R type="real"  size=" 602" columns="8">
    0.0000    0.0100    0.0200    0.0300    0.0400    0.0500    0.0600    0.0700
    0.0800    0.0900    0.1000    0.1100    0.1200    0.1300    0.1400    0.1500
    0.1600    0.1700    0.1800    0.1900    0.2000    0.2100    0.2200    0.2300
    0.2400    0.2500    0.2600    0.2700    0.2800    0.2900    0.3000    0.3100
    0.3200    0.3300    0.3400    0.3500    0.3600    0.3700    0.3800    0.3900
    0.4000    0.4100    0.4200    0.4300    0.4400    0.4500    0.4600    0.4700
    0.4800    0.4900    0.5000    0.5100    0.5200    0.5300    0.5400    0.5500
    0.5600    0.5700    0.5800    0.5900    0.6000    0.6100    0.6200    0.6300
    0.6400    0.6500    0.6600    0.6700    0.6800    0.6900    0.7000    0.7100
    0.7200    0.7300    0.7400    0.7500    0.7600    0.7700    0.7800    0.7900
    0.8000    0.8100    0.8200    0.8300    0.8400    0.8500    0.8600    0.8700
    0.8800    0.8900    0.9000    0.9100    0.9200    0.9300    0.9400    0.9500
    0.9600    0.9700    0.9800    0.9900    1.0000    1.0100    1.0200    1.0300
    1.0400    1.0500    1.0600    1.0700    1.0800    1.0900    1.1000    1.1100
    1.1200    1.1300    1.1400    1.1500    1.1600    1.1700    1.1800    1.1900
    1.2000    1.2100    1.2200    1.2300    1.2400    1.2500    1.2600    1.2700
    1.2800    1.2900    1.3000    1.3100    1.3200    1.3300    1.3400    1.3500
    1.3600    1.3700    1.3800    1.3900    1.4000    1.4100    1.4200    1.4300
    1.4400    1.4500    1.4600    1.4700    1.4800    1.4900    1.5000    1.5100
    1.5200    1.5300    1.5400    1.5500    1.5600    1.5700    1.5800    1.5900
    1.6000    1.6100    1.6200    1.6300    1.6400    1.6500    1.6600    1.6700
    1.6800    1.6900    1.7000    1.7100    1.7200    1.7300    1.7400    1.7500
    1.7600    1.7700    1.7800    1.7900    1.8000    1.8100    1.8200    1.8300
    1.8400    1.8500    1.8600    1.8700    1.8800    1.8900    1.9000    1.9100
    1.9200    1.9300    1.9400    1.9500    1.9600    1.9700    1.9800    1.9900
    2.0000    2.0100    2.0200    2.0300    2.0400    2.0500    2.0600    2.0700
    2.0800    2.0900    2.1000    2.1100    2.1200    2.1300    2.1400    2.1500
    2.1600    2.1700    2.1800    2.1900    2.2000    2.2100    2.2200    2.2300
    2.2400    2.2500    2.2600    2.2700    2.2800    2.2900    2.3000    2.3100
    2.3200    2.3300    2.3400    2.3500    2.3600    2.3700    2.3800    2.3900
    2.4000    2.4100    2.4200    2.4300    2.4400    2.4500    2.4600    2.4700
    2.4800    2.4900    2.5000    2.5100    2.5200    2.5300    2.5400    2.5500
    2.5600    2.5700    2.5800    2.5900    2.6000    2.6100    2.6200    2.6300
    2.6400    2.6500    2.6600    2.6700    2.6800    2.6900    2.7000    2.7100
    2.7200    2.7300    2.7400    2.7500    2.7600    2.7700    2.7800    2.7900
    2.8000    2.8100    2.8200    2.8300    2.8400    2.8500    2.8600    2.8700
    2.8800    2.8900    2.9000    2.9100    2.9200    2.9300    2.9400    2.9500
    2.9600    2.9700    2.9800    2.9900    3.0000    3.0100    3.0200    3.0300
    3.0400    3.0500    3.0600    3.0700    3.0800    3.0900    3.1000    3.1100
    3.1200    3.1300    3.1400    3.1500    3.1600    3.1700    3.1800    3.1900
    3.2000    3.2100    3.2200    3.2300    3.2400    3.2500    3.2600    3.2700
    3.2800    3.2900    3.3000    3.3100    3.3200    3.3300    3.3400    3.3500
    3.3600    3.3700    3.3800    3.3900    3.4000    3.4100    3.4200    3.4300
    3.4400    3.4500    3.4600    3.4700    3.4800    3.4900    3.5000    3.5100
    3.5200    3.5300    3.5400    3.5500    3.5600    3.5700    3.5800    3.5900
    3.6000    3.6100    3.6200    3.6300    3.6400    3.6500    3.6600    3.6700
    3.6800    3.6900    3.7000    3.7100    3.7200    3.7300    3.7400    3.7500
    3.7600    3.7700    3.7800    3.7900    3.8000    3.8100    3.8200    3.8300
    3.8400    3.8500    3.8600    3.8700    3.8800    3.8900    3.9000    3.9100
    3.9200    3.9300    3.9400    3.9500    3.9600    3.9700    3.9800    3.9900
    4.0000    4.0100    4.0200    4.0300    4.0400    4.0500    4.0600    4.0700
    4.0800    4.0900    4.1000    4.1100    4.1200    4.1300    4.1400    4.1500
    4.1600    4.1700    4.1800    4.1900    4.2000    4.2100    4.2200    4.2300
    4.2400    4.2500    4.2600    4.2700    4.2800    4.2900    4.3000    4.3100
    4.3200    4.3300    4.3400    4.3500    4.3600    4.3700    4.3800    4.3900
    4.4000    4.4100    4.4200    4.4300    4.4400    4.4500    4.4600    4.4700
    4.4800    4.4900    4.5000    4.5100    4.5200    4.5300    4.5400    4.5500
    4.5600    4.5700    4.5800    4.5900    4.6000    4.6100    4.6200    4.6300
    4.6400    4.6500    4.6600    4.6700    4.6800    4.6900    4.7000    4.7100
    4.7200    4.7300    4.7400    4.7500    4.7600    4.7700    4.7800    4.7900
    4.8000    4.8100    4.8200    4.8300    4.8400    4.8500    4.8600    4.8700
    4.8800    4.8900    4.9000    4.9100    4.9200    4.9300    4.9400    4.9500
    4.9600    4.9700    4.9800    4.9900    5.0000    5.0100    5.0200    5.0300
    5.0400    5.0500    5.0600    5.0700    5.0800    5.0900    5.1000    5.1100
    5.1200    5.1300    5.1400    5.1500    5.1600    5.1700    5.1800    5.1900
    5.2000    5.2100    5.2200    5.2300    5.2400    5.2500    5.2600    5.2700
    5.2800    5.2900    5.3000    5.3100    5.3200    5.3300    5.3400    5.3500
    5.3600    5.3700    5.3800    5.3900    5.4000    5.4100    5.4200    5.4300
    5.4400    5.4500    5.4600    5.4700    5.4800    5.4900    5.5000    5.5100
    5.5200    5.5300    5.5400    5.5500    5.5600    5.5700    5.5800    5.5900
    5.6000    5.6100    5.6200    5.6300    5.6400    5.6500    5.6600    5.6700
    5.6800    5.6900    5.7000    5.7100    5.7200    5.7300    5.7400    5.7500
    5.7600    5.7700    5.7800    5.7900    5.8000    5.8100    5.8200    5.8300
    5.8400    5.8500    5.8600    5.8700    5.8800    5.8900    5.9000    5.9100
    5.9200    5.9300    5.9400    5.9500    5.9600    5.9700    5.9800    5.9900
    6.0000    6.0100
   </PP_R>
   <PP_RAB type="real"  size=" 602" columns="8">
    0.0100    0.0100    0.0100    0.0100    0.0100    0.0100    0.0100    0.0100
    0.0100    0.0100    0.0100    0.0100    0.0100    0.0100    0.0100    0.0100
    0.0100    0.0100    0.0100    0.0100    0.0100    0.0100    0.0100    0.0100
    0.0100    0.0100    0.0100    0.0100    0.0100    0.0100    0.0100    0.0100
    0.0100    0.0100    0.0100    0.0100    0.0100    0.0100    0.0100    0.0100
    0.0100    0.0100    0.0100    0.0100    0.0100    0.0100    0.0100    0.0100
    0.0100    0.0100    0.0100    0.0100    0.0100    0.0100    0.0100    0.0100
    0.0100    0.0100    0.0100    0.0100    0.0100    0.0100    0.0100    0.0100
    0.0100    0.0100    0.0100    0.0100    0.0100    0.0100    0.0100    0.0100
    0.0100    0.0100    0.0100    0.0100    0.0100    0.0100    0.0100    0.0100
    0.0100    0.0100    0.0100    0.0100    0.0100    0.0100    0.0100    0.0100
    0.0100    0.0100    0.0100    0.0100    0.0100    0.0100    0.0100    0.0100
    0.0100    0.0100    0.0100    0.0100    0.0100    0.0100    0.0100    0.0100
    0.0100    0.0100    0.0100    0.0100    0.0100    0.0100    0.0100    0.0100
    0.0100    0.0100    0.0100    0.0100    0.0100    0.0100    0.0100    0.0100
    0.0100    0.0100    0.0100    0.0100    0.0100    0.0100    0.0100    0.0100
    0.0100    0.0100    0.0100    0.0100    0.0100    0.0100    0.0100    0.0100
    0.0100    0.0100    0.0100    0.0100    0.0100    0.0100    0.0100    0.0100
    0.0100    0.0100    0.0100    0.0100    0.0100    0.0100    0.0100    0.0100
    0.0100    0.0100    0.0100    0.0100    0.0100    0.0100    0.0100    0.0100
    0.0100    0.0100    0.0100    0.0100    0.0100    0.0100    0.0100    0.0100
    0.0100    0.0100    0.0100    0.0100    0.0100    0.0100    0.0100    0.0100
    0.0100    0.0100    0.0100    0.0100    0.0100    0.0100    0.0100    0.0100
    0.0100    0.0100    0.0100    0.0100    0.0100    0.0100    0.0100    0.0100
    0.0100    0.0100    0.0100    0.0100    0.0100    0.0100    0.0100    0.0100
    0.0100    0.0100    0.0100    0.0100    0.0100    0.0100    0.0100    0.0100
    0.0100    0.0100    0.0100    0.0100    0.0100    0.0100    0.0100    0.0100
    0.0100    0.0100    0.0100    0.0100    0.0100    0.0100    0.0100    0.0100
    0.0100    0.0100    0.0100    0.0100    0.0100    0.0100    0.0100    0.0100
    0.0100    0.0100    0.0100    0.0100    0.0100    0.0100    0.0100    0.0100
    0.0100    0.0100    0.0100    0.0100    0.0100    0.0100    0.0100    0.0100
    0.0100    0.0100    0.0100    0.0100    0.0100    0.0100    0.0100    0.0100
    0.0100    0.0100    0.0100    0.0100    0.0100    0.0100    0.0100    0.0100
    0.0100    0.0100    0.0100    0.0100    0.0100    0.0100    0.0100    0.0100
    0.0100    0.0100    0.0100    0.0100    0.0100    0.0100    0.0100    0.0100
    0.0100    0.0100    0.0100    0.0100    0.0100    0.0100    0.0100    0.0100
    0.0100    0.0100    0.0100    0.0100    0.0100    0.0100    0.0100    0.0100
    0.0100    0.0100    0.0100    0.0100    0.0100    0.0100    0.0100    0.0100
    0.0100    0.0100    0.0100    0.0100    0.0100    0.0100    0.0100    0.0100
    0.0100    0.0100    0.0100    0.0100    0.0100    0.0100    0.0100    0.0100
    0.0100    0.0100    0.0100    0.0100    0.0100    0.0100    0.0100    0.0100
    0.0100    0.0100    0.0100    0.0100    0.0100    0.0100    0.0100    0.0100
    0.0100    0.0100    0.0100    0.0100    0.0100    0.0100    0.0100    0.0100
    0.0100    0.0100    0.0100    0.0100    0.0100    0.0100    0.0100    0.0100
    0.0100    0.0100    0.0100    0.0100    0.0100    0.0100    0.0100    0.0100
    0.0100    0.0100    0.0100    0.0100    0.0100    0.0100    0.0100    0.0100
    0.0100    0.0100    0.0100    0.0100    0.0100    0.0100    0.0100    0.0100
    0.0100    0.0100    0.0100    0.0100    0.0100    0.0100    0.0100    0.0100
    0.0100    0.0100    0.0100    0.0100    0.0100    0.0100    0.0100    0.0100
    0.0100    0.0100    0.0100    0.0100    0.0100    0.0100    0.0100    0.0100
    0.0100    0.0100    0.0100    0.0100    0.0100    0.0100    0.0100    0.0100
    0.0100    0.0100    0.0100    0.0100    0.0100    0.0100    0.0100    0.0100
    0.0100    0.0100    0.0100    0.0100    0.0100    0.0100    0.0100    0.0100
    0.0100    0.0100    0.0100    0.0100    0.0100    0.0100    0.0100    0.0100
    0.0100    0.0100    0.0100    0.0100    0.0100    0.0100    0.0100    0.0100
    0.0100    0.0100    0.0100    0.0100    0.0100    0.0100    0.0100    0.0100
    0.0100    0.0100    0.0100    0.0100    0.0100    0.0100    0.0100    0.0100
    0.0100    0.0100    0.0100    0.0100    0.0100    0.0100    0.0100    0.0100
    0.0100    0.0100    0.0100    0.0100    0.0100    0.0100    0.0100    0.0100
    0.0100    0.0100    0.0100    0.0100    0.0100    0.0100    0.0100    0.0100
    0.0100    0.0100    0.0100    0.0100    0.0100    0.0100    0.0100    0.0100
    0.0100    0.0100    0.0100    0.0100    0.0100    0.0100    0.0100    0.0100
    0.0100    0.0100    0.0100    0.0100    0.0100    0.0100    0.0100    0.0100
    0.0100    0.0100    0.0100    0.0100    0.0100    0.0100    0.0100    0.0100
    0.0100    0.0100    0.0100    0.0100    0.0100    0.0100    0.0100    0.0100
    0.0100    0.0100    0.0100    0.0100    0.0100    0.0100    0.0100    0.0100
    0.0100    0.0100    0.0100    0.0100    0.0100    0.0100    0.0100    0.0100
    0.0100    0.0100    0.0100    0.0100    0.0100    0.0100    0.0100    0.0100
    0.0100    0.0100    0.0100    0.0100    0.0100    0.0100    0.0100    0.0100
    0.0100    0.0100    0.0100    0.0100    0.0100    0.0100    0.0100    0.0100
    0.0100    0.0100    0.0100    0.0100    0.0100    0.0100    0.0100    0.0100
    0.0100    0.0100    0.0100    0.0100    0.0100    0.0100    0.0100    0.0100
    0.0100    0.0100    0.0100    0.0100    0.0100    0.0100    0.0100    0.0100
    0.0100    0.0100    0.0100    0.0100    0.0100    0.0100    0.0100    0.0100
    0.0100    0.0100    0.0100    0.0100    0.0100    0.0100    0.0100    0.0100
    0.0100    0.0100
   </PP_RAB>
 </PP_MESH>
  <PP_LOCAL type="real"  size=" 602" columns="4">
   -1.5819617931E+01   -2.8069740942E+01   -2.9879047239E+01   -2.7144319309E+01
   -2.5762339639E+01   -2.5287631920E+01   -2.5106466544E+01   -2.5012947895E+01
   -2.4945238409E+01   -2.4883982203E+01   -2.4822644421E+01   -2.4758824196E+01
   -2.4691561392E+01   -2.4620442455E+01   -2.4545281751E+01   -2.4465999245E+01
   -2.4382569547E+01   -2.4294998601E+01   -2.4203311827E+01   -2.4107547398E+01
   -2.4007751989E+01   -2.3903977873E+01   -2.3796280783E+01   -2.3684718273E+01
   -2.3569348423E+01   -2.3450228777E+01   -2.3327415492E+01   -2.3200962621E+01
   -2.3070921543E+01   -2.2937340500E+01   -2.2800264247E+01   -2.2659733797E+01
   -2.2515786278E+01   -2.2368454885E+01   -2.2217768927E+01   -2.2063754003E+01
   -2.1906432242E+01   -2.1745822695E+01   -2.1581941803E+01   -2.1414803974E+01
   -2.1244422273E+01   -2.1070809201E+01   -2.0893977565E+01   -2.0713941428E+01
   -2.0530717134E+01   -2.0344324386E+01   -2.0154787364E+01   -1.9962135868E+01
   -1.9766406443E+01   -1.9567643507E+01   -1.9365900491E+01   -1.9161240778E+01
   -1.8953738532E+01   -1.8743479815E+01   -1.8530562874E+01   -1.8315098851E+01
   -1.8097212095E+01   -1.7877040092E+01   -1.7654733626E+01   -1.7430456184E+01
   -1.7204383534E+01   -1.6976703032E+01   -1.6747612219E+01   -1.6517318284E+01
   -1.6286036139E+01   -1.6053987072E+01   -1.5821397362E+01   -1.5588496333E+01
   -1.5355514789E+01   -1.5122683350E+01   -1.4890230774E+01   -1.4658382491E+01
   -1.4427359217E+01   -1.4197375777E+01   -1.3968640000E+01   -1.3741351748E+01
   -1.3515702437E+01   -1.3291874491E+01   -1.3070041053E+01   -1.2850365852E+01
   -1.2633003216E+01   -1.2418098219E+01   -1.2205786913E+01   -1.1996196650E+01
   -1.1789446447E+01   -1.1585647384E+01   -1.1384903019E+01   -1.1187309787E+01
   -1.0992957387E+01   -1.0801929143E+01   -1.0614302323E+01   -1.0430148417E+01
   -1.0249533378E+01   -1.0072517812E+01   -9.8991571333E+00   -9.7295016766E+00
   -9.5635967746E+00   -9.4014829736E+00   -9.2431955937E+00   -9.0887650981E+00
   -8.9382170108E+00   -8.7915718611E+00   -8.6488451435E+00   -8.5100474373E+00
   -8.3751840821E+00   -8.2442549234E+00   -8.1172547441E+00   -7.9941730375E+00
   -7.8749942422E+00   -7.7596971583E+00   -7.6482547456E+00   -7.5406347560E+00
   -7.4367996281E+00   -7.3367064811E+00   -7.2403056861E+00   -7.1475424800E+00
   -7.0583568494E+00   -6.9726827049E+00   -6.8904471112E+00   -6.8115717324E+00
   -6.7359734467E+00   -6.6635604180E+00   -6.5942352525E+00   -6.5278953926E+00
   -6.4644299055E+00   -6.4037204741E+00   -6.3456436741E+00   -6.2900674333E+00
   -6.2368511169E+00   -6.1858472550E+00   -6.1368852696E+00   -6.0897764256E+00
   -6.0443231684E+00   -6.0003203765E+00   -5.9575738493E+00   -5.9158897988E+00
   -5.8751054207E+00   -5.8350666961E+00   -5.7956429096E+00   -5.7567342099E+00
   -5.7182451198E+00   -5.6801194316E+00   -5.6423057196E+00   -5.6047712453E+00
   -5.5675003020E+00   -5.5304783279E+00   -5.4937095021E+00   -5.4571957137E+00
   -5.4209474702E+00   -5.3849759472E+00   -5.3492945697E+00   -5.3139168781E+00
   -5.2788569711E+00   -5.2441270096E+00   -5.2097395924E+00   -5.1757044974E+00
   -5.1420313469E+00   -5.1087273833E+00   -5.0757988064E+00   -5.0432503647E+00
   -5.0110850458E+00   -4.9793052777E+00   -4.9479113388E+00   -4.9169035886E+00
   -4.8862801779E+00   -4.8560396926E+00   -4.8261787036E+00   -4.7966943327E+00
   -4.7675820370E+00   -4.7388377783E+00   -4.7104562720E+00   -4.6824326047E+00
   -4.6547610336E+00   -4.6274360272E+00   -4.6004515922E+00   -4.5738018053E+00
   -4.5474805675E+00   -4.5214817594E+00   -4.4957992716E+00   -4.4704269548E+00
   -4.4453587471E+00   -4.4205886077E+00   -4.3961105535E+00   -4.3719187634E+00
   -4.3480073483E+00   -4.3243707914E+00   -4.3010033057E+00   -4.2778996897E+00
   -4.2550544061E+00   -4.2324624412E+00   -4.2101186253E+00   -4.1880180745E+00
   -4.1661560456E+00   -4.1445277531E+00   -4.1231289040E+00   -4.1019548084E+00
   -4.0810015234E+00   -4.0602647272E+00   -4.0397405367E+00   -4.0194251089E+00
   -3.9993145845E+00   -3.9794055777E+00   -3.9596943170E+00   -3.9401776866E+00
   -3.9208523028E+00   -3.9017150195E+00   -3.8827629274E+00   -3.8639928428E+00
   -3.8454021915E+00   -3.8269880728E+00   -3.8087478856E+00   -3.7906791565E+00
   -3.7727792077E+00   -3.7550458657E+00   -3.7374766843E+00   -3.7200694421E+00
   -3.7028220601E+00   -3.6857322289E+00   -3.6687980893E+00   -3.6520175765E+00
   -3.6353887135E+00   -3.6189097110E+00   -3.6025786060E+00   -3.5863936721E+00
   -3.5703531580E+00   -3.5544552438E+00   -3.5386983263E+00   -3.5230806920E+00
   -3.5076006794E+00   -3.4922567098E+00   -3.4770471292E+00   -3.4619703697E+00
   -3.4470248687E+00   -3.4322090224E+00   -3.4175213032E+00   -3.4029601570E+00
   -3.3885240259E+00   -3.3742113768E+00   -3.3600206556E+00   -3.3459503209E+00
   -3.3319988712E+00   -3.3181647217E+00   -3.3044464053E+00   -3.2908425558E+00
   -3.2773516685E+00   -3.2639724070E+00   -3.2507034847E+00   -3.2375435537E+00
   -3.2244912993E+00   -3.2115454085E+00   -3.1987044832E+00   -3.1859673137E+00
   -3.1733326840E+00   -3.1607993094E+00   -3.1483660045E+00   -3.1360315783E+00
   -3.1237947735E+00   -3.1116544549E+00   -3.0996094870E+00   -3.0876586680E+00
   -3.0758008965E+00   -3.0640350854E+00   -3.0523600840E+00   -3.0407748184E+00
   -3.0292782540E+00   -3.0178692937E+00   -3.0065468839E+00   -2.9953100438E+00
   -2.9841577332E+00   -2.9730889106E+00   -2.9621026516E+00   -2.9511979760E+00
   -2.9403738470E+00   -2.9296293986E+00   -2.9189636985E+00   -2.9083757551E+00
   -2.8978647146E+00   -2.8874297040E+00   -2.8770697950E+00   -2.8667841229E+00
   -2.8565718816E+00   -2.8464322118E+00   -2.8363642284E+00   -2.8263671938E+00
   -2.8164403072E+00   -2.8065827041E+00   -2.7967936669E+00   -2.7870724543E+00
   -2.7774182756E+00   -2.7678303750E+00   -2.7583080874E+00   -2.7488506986E+00
   -2.7394574199E+00   -2.7301276473E+00   -2.7208607132E+00   -2.7116559077E+00
   -2.7025125705E+00   -2.6934301156E+00   -2.6844079121E+00   -2.6754452574E+00
   -2.6665416220E+00   -2.6576964207E+00   -2.6489090347E+00   -2.6401788616E+00
   -2.6315053982E+00   -2.6228880906E+00   -2.6143263309E+00   -2.6058196227E+00
   -2.5973674676E+00   -2.5889693419E+00   -2.5806246694E+00   -2.5723330258E+00
   -2.5640939236E+00   -2.5559068521E+00   -2.5477713158E+00   -2.5396868970E+00
   -2.5316531369E+00   -2.5236695416E+00   -2.5157356789E+00   -2.5078511380E+00
   -2.5000154851E+00   -2.4922282462E+00   -2.4844890345E+00   -2.4767974473E+00
   -2.4691530722E+00   -2.4615554565E+00   -2.4540042430E+00   -2.4464990386E+00
   -2.4390394457E+00   -2.4316250410E+00   -2.4242554766E+00   -2.4169303722E+00
   -2.4096493432E+00   -2.4024119901E+00   -2.3952179697E+00   -2.3880669138E+00
   -2.3809584498E+00   -2.3738921936E+00   -2.3668678083E+00   -2.3598849357E+00
   -2.3529432142E+00   -2.3460422690E+00   -2.3391817718E+00   -2.3323613736E+00
   -2.3255807238E+00   -2.3188394511E+00   -2.3121372399E+00   -2.3054737507E+00
   -2.2988486438E+00   -2.2922615512E+00   -2.2857121697E+00   -2.2792001735E+00
   -2.2727252343E+00   -2.2662869907E+00   -2.2598851475E+00   -2.2535194037E+00
   -2.2471894468E+00   -2.2408949326E+00   -2.2346355611E+00   -2.2284110695E+00
   -2.2222211658E+00   -2.2160655455E+00   -2.2099438952E+00   -2.2038559766E+00
   -2.1978015140E+00   -2.1917802317E+00   -2.1857918215E+00   -2.1798360476E+00
   -2.1739126495E+00   -2.1680213631E+00   -2.1621619034E+00   -2.1563340154E+00
   -2.1505374667E+00   -2.1447720059E+00   -2.1390373781E+00   -2.1333333032E+00
   -2.1276595751E+00   -2.1220159540E+00   -2.1164022004E+00   -2.1108180519E+00
   -2.1052632835E+00   -2.0997376815E+00   -2.0942410173E+00   -2.0887730598E+00
   -2.0833335508E+00   -2.0779223054E+00   -2.0725391056E+00   -2.0671837335E+00
   -2.0618559544E+00   -2.0565555532E+00   -2.0512823410E+00   -2.0460361100E+00
   -2.0408166524E+00   -2.0356237323E+00   -2.0304571718E+00   -2.0253167791E+00
   -2.0202023559E+00   -2.0151137003E+00   -2.0100505898E+00   -2.0050128648E+00
   -2.0000003366E+00   -1.9950128162E+00   -1.9900501029E+00   -1.9851120015E+00
   -1.9801983530E+00   -1.9753089776E+00   -1.9704436950E+00   -1.9656023079E+00
   -1.9607846428E+00   -1.9559905432E+00   -1.9512198372E+00   -1.9464723534E+00
   -1.9417478991E+00   -1.9370463177E+00   -1.9323674565E+00   -1.9277111517E+00
   -1.9230772396E+00   -1.9184655344E+00   -1.9138758912E+00   -1.9093081626E+00
   -1.9047621927E+00   -1.9002378252E+00   -1.8957348824E+00   -1.8912532268E+00
   -1.8867927179E+00   -1.8823532069E+00   -1.8779345450E+00   -1.8735365637E+00
   -1.8691591287E+00   -1.8648021078E+00   -1.8604653593E+00   -1.8561487412E+00
   -1.8518520956E+00   -1.8475752873E+00   -1.8433181941E+00   -1.8390806805E+00
   -1.8348626114E+00   -1.8306638408E+00   -1.8264842289E+00   -1.8223236643E+00
   -1.8181820179E+00   -1.8140591608E+00   -1.8099549602E+00   -1.8058692684E+00
   -1.8018019858E+00   -1.7977529893E+00   -1.7937221561E+00   -1.7897093632E+00
   -1.7857144654E+00   -1.7817373622E+00   -1.7777779409E+00   -1.7738360841E+00
   -1.7699116748E+00   -1.7660045832E+00   -1.7621146930E+00   -1.7582419066E+00
   -1.7543861119E+00   -1.7505471974E+00   -1.7467250502E+00   -1.7429195356E+00
   -1.7391305711E+00   -1.7353580502E+00   -1.7316018663E+00   -1.7278619128E+00
   -1.7241380695E+00   -1.7204302348E+00   -1.7167383184E+00   -1.7130622188E+00
   -1.7094018343E+00   -1.7057570634E+00   -1.7021277809E+00   -1.6985139130E+00
   -1.6949153631E+00   -1.6913320344E+00   -1.6877638301E+00   -1.6842106448E+00
   -1.6806723763E+00   -1.6771489476E+00   -1.6736402663E+00   -1.6701462402E+00
   -1.6666667769E+00   -1.6632017687E+00   -1.6597511333E+00   -1.6563147906E+00
   -1.6528926528E+00   -1.6494846316E+00   -1.6460906391E+00   -1.6427105670E+00
   -1.6393443487E+00   -1.6359919027E+00   -1.6326531449E+00   -1.6293279914E+00
   -1.6260163570E+00   -1.6227181386E+00   -1.6194332769E+00   -1.6161616917E+00
   -1.6129033030E+00   -1.6096580309E+00   -1.6064257917E+00   -1.6032064914E+00
   -1.6000000718E+00   -1.5968064565E+00   -1.5936255692E+00   -1.5904573337E+00
   -1.5873016697E+00   -1.5841584883E+00   -1.5810277339E+00   -1.5779093337E+00
   -1.5748032150E+00   -1.5717093051E+00   -1.5686275282E+00   -1.5655577974E+00
   -1.5625000609E+00   -1.5594542493E+00   -1.5564202932E+00   -1.5533981234E+00
   -1.5503876701E+00   -1.5473888448E+00   -1.5444016009E+00   -1.5414258722E+00
   -1.5384615927E+00   -1.5355086962E+00   -1.5325671165E+00   -1.5296367714E+00
   -1.5267176100E+00   -1.5238095727E+00   -1.5209125964E+00   -1.5180266181E+00
   -1.5151515747E+00   -1.5122873924E+00   -1.5094340121E+00   -1.5065913821E+00
   -1.5037594423E+00   -1.5009381327E+00   -1.4981273931E+00   -1.4953271592E+00
   -1.4925373611E+00   -1.4897579561E+00   -1.4869888869E+00   -1.4842300961E+00
   -1.4814815264E+00   -1.4787431206E+00   -1.4760148067E+00   -1.4732965404E+00
   -1.4705882708E+00   -1.4678899433E+00   -1.4652015031E+00   -1.4625228958E+00
   -1.4598540610E+00   -1.4571949380E+00   -1.4545454873E+00   -1.4519056566E+00
   -1.4492753938E+00   -1.4466546469E+00   -1.4440433639E+00   -1.4414414796E+00
   -1.4388489520E+00   -1.4362657362E+00   -1.4336917823E+00   -1.4311270408E+00
   -1.4285714620E+00   -1.4260249948E+00   -1.4234875756E+00   -1.4209591725E+00
   -1.4184397383E+00   -1.4159292256E+00   -1.4134275869E+00   -1.4109347751E+00
   -1.4084507367E+00   -1.4059754204E+00   -1.4035087917E+00   -1.4010508055E+00
   -1.3986014167E+00   -1.3961605802E+00   -1.3937282507E+00   -1.3913043744E+00
   -1.3888889084E+00   -1.3864818173E+00   -1.3840830580E+00   -1.3816925876E+00
   -1.3793103628E+00   -1.3769363408E+00   -1.3745704681E+00   -1.3722127077E+00
   -1.3698630241E+00   -1.3675213764E+00   -1.3651877234E+00   -1.3628620242E+00
   -1.3605442377E+00   -1.3582343124E+00   -1.3559322139E+00   -1.3536379082E+00
   -1.3513513561E+00   -1.3490725185E+00   -1.3468013564E+00   -1.3445378305E+00
   -1.3422818925E+00   -1.3400335077E+00   -1.3377926447E+00   -1.3355592662E+00
   -1.3333333350E+00   -1.3311148136E+00
  </PP_LOCAL>
 <PP_NONLOCAL>
   <PP_BETA.1
       type="real"
       size=" 602"
       columns="4"
       index="1"
       angular_momentum="0"
       cutoff_radius_index=" 360"
       cutoff_radius="    3.5900000000E+00" >
    0.0000000000E+00   -2.2171060088E-02   -4.4325448634E-02   -6.6446366656E-02
   -8.8516761250E-02   -1.1051920105E-01   -1.3243575452E-01   -1.5424787214E-01
   -1.7593627325E-01   -1.9748083853E-01   -2.1886050908E-01   -2.4005319277E-01
   -2.6103567878E-01   -2.8178356109E-01   -3.0227117167E-01   -3.2247152399E-01
   -3.4235626758E-01   -3.6189565413E-01   -3.8105851582E-01   -3.9981225611E-01
   -4.1812285368E-01   -4.3595487960E-01   -4.5327152832E-01   -4.7003466229E-01
   -4.8620487079E-01   -5.0174154266E-01   -5.1660295319E-01   -5.3074636493E-01
   -5.4412814228E-01   -5.5670387962E-01   -5.6842854282E-01   -5.7925662353E-01
   -5.8914230554E-01   -5.9803964260E-01   -6.0590275066E-01   -6.1268600210E-01
   -6.1834424334E-01   -6.2283300564E-01   -6.2610873406E-01   -6.2812902336E-01
   -6.2885285235E-01   -6.2824082876E-01   -6.2625543592E-01   -6.2286128164E-01
   -6.1802534789E-01   -6.1171723995E-01   -6.0390943373E-01   -5.9457751954E-01
   -5.8370043727E-01   -5.7126071165E-01   -5.5724468970E-01   -5.4164273929E-01
   -5.2444943892E-01   -5.0566383091E-01   -4.8528952819E-01   -4.6333492131E-01
   -4.3981332137E-01   -4.1474306320E-01   -3.8814765675E-01   -3.6005583499E-01
   -3.3050164224E-01   -2.9952449491E-01   -2.6716912869E-01   -2.3348571038E-01
   -1.9852970472E-01   -1.6236183620E-01   -1.2504806077E-01   -8.6659386186E-02
   -4.7271748498E-02   -6.9658538541E-03    3.4173028404E-02    7.6055303673E-02
    1.1858730401E-01    1.6167156922E-01    2.0520716414E-01    2.4909004042E-01