<PP_INFO>
Generated using ld1 code (maybe, or maybe not)                                  
Author: unknown    Generation date: as well                                     
Info: automatically converted from PWSCF format                                 
    1        The Pseudo was generated with a Scalar-Relativistic Calculation
nl pn  l   occ               Rcut            Rcut US             E pseu
*S  0  0  2.00      0.00000000000      0.00000000000      0.00000000000
*P  0  1  0.00      0.00000000000      0.00000000000      0.00000000000
*D  0  2  6.00      0.00000000000      0.00000000000      0.00000000000
</PP_INFO>


<PP_HEADER>
   0                   Version Number
  Fe                   Element
   NC                  Norm - Conserving pseudopotential
    T                  Nonlinear Core Correction
 SLA  PZ   NOGX NOGC   PZ   Exchange-Correlation functional    
    8.00000000000      Z valence
    0.00000000000      Total energy
  0.0000000  0.0000000 Suggested cutoff for wfc and rho
    2                  Max angular momentum component
 1160                  Number of points in mesh
    3    2             Number of Wavefunctions, Number of Projectors
 Wavefunctions         nl  l   occ
                       *S  0  2.00
                       *P  1  0.00
                       *D  2  6.00
</PP_HEADER>


<PP_MESH>
  <PP_R>
  3.37553195077E-05  3.41970033862E-05  3.46444666396E-05  3.50977848903E-05
  3.55570347502E-05  3.60222938337E-05  3.64936407705E-05  3.69711552194E-05
  3.74549178816E-05  3.79450105141E-05  3.84415159436E-05  3.89445180808E-05
  3.94541019343E-05  3.99703536249E-05  4.04933604004E-05  4.10232106502E-05
  4.15599939203E-05  4.21038009282E-05  4.26547235787E-05  4.32128549790E-05
  4.37782894546E-05  4.43511225654E-05  4.49314511214E-05  4.55193731996E-05
  4.61149881602E-05  4.67183966636E-05  4.73297006872E-05  4.79490035429E-05
  4.85764098943E-05  4.92120257745E-05  4.98559586043E-05  5.05083172097E-05
  5.11692118410E-05  5.18387541908E-05  5.25170574135E-05  5.32042361439E-05
  5.39004065168E-05  5.46056861867E-05  5.53201943476E-05  5.60440517529E-05
  5.67773807364E-05  5.75203052324E-05  5.82729507969E-05  5.90354446287E-05
  5.98079155912E-05  6.05904942338E-05  6.13833128141E-05  6.21865053204E-05
  6.30002074941E-05  6.38245568528E-05  6.46596927135E-05  6.55057562162E-05
  6.63628903476E-05  6.72312399654E-05  6.81109518228E-05  6.90021745931E-05
  6.99050588952E-05  7.08197573186E-05  7.17464244496E-05  7.26852168971E-05
  7.36362933192E-05  7.45998144501E-05  7.55759431273E-05  7.65648443187E-05
  7.75666851510E-05  7.85816349378E-05  7.96098652078E-05  8.06515497346E-05
  8.17068645652E-05  8.27759880505E-05  8.38591008747E-05  8.49563860865E-05
  8.60680291299E-05  8.71942178749E-05  8.83351426504E-05  8.94909962752E-05
  9.06619740913E-05  9.18482739969E-05  9.30500964794E-05  9.42676446496E-05
  9.55011242762E-05  9.67507438200E-05  9.80167144699E-05  9.92992501778E-05
  1.00598567695E-04  1.01914886610E-04  1.03248429383E-04  1.04599421387E-04
  1.05968090942E-04  1.07354669356E-04  1.08759390965E-04  1.10182493170E-04
  1.11624216479E-04  1.13084804545E-04  1.14564504213E-04  1.16063565555E-04
  1.17582241916E-04  1.19120789955E-04  1.20679469691E-04  1.22258544545E-04
  1.23858281384E-04  1.25478950568E-04  1.27120825992E-04  1.28784185139E-04
  1.30469309119E-04  1.32176482724E-04  1.33905994468E-04  1.35658136645E-04
  1.37433205369E-04  1.39231500632E-04  1.41053326350E-04  1.42898990416E-04
  1.44768804752E-04  1.46663085360E-04  1.48582152378E-04  1.50526330134E-04
  1.52495947198E-04  1.54491336440E-04  1.56512835085E-04  1.58560784773E-04
  1.60635531610E-04  1.62737426234E-04  1.64866823871E-04  1.67024084393E-04
  1.69209572384E-04  1.71423657194E-04  1.73666713011E-04  1.75939118915E-04
  1.78241258950E-04  1.80573522181E-04  1.82936302768E-04  1.85330000025E-04
  1.87755018493E-04  1.90211768006E-04  1.92700663761E-04  1.95222126386E-04
  1.97776582016E-04  2.00364462358E-04  2.02986204772E-04  2.05642252337E-04
  2.08333053932E-04  2.11059064310E-04  2.13820744171E-04  2.16618560248E-04
  2.19452985376E-04  2.22324498581E-04  2.25233585156E-04  2.28180736743E-04
  2.31166451417E-04  2.34191233772E-04  2.37255595003E-04  2.40360052994E-04
  2.43505132406E-04  2.46691364765E-04  2.49919288552E-04  2.53189449293E-04
  2.56502399654E-04  2.59858699531E-04  2.63258916146E-04  2.66703624146E-04
  2.70193405692E-04  2.73728850567E-04  2.77310556269E-04  2.80939128115E-04
  2.84615179343E-04  2.88339331213E-04  2.92112213117E-04  2.95934462680E-04
  2.99806725871E-04  3.03729657112E-04  3.07703919389E-04  3.11730184360E-04
  3.15809132475E-04  3.19941453084E-04  3.24127844561E-04  3.28369014414E-04
  3.32665679413E-04  3.37018565703E-04  3.41428408933E-04  3.45895954377E-04
  3.50421957060E-04  3.55007181889E-04  3.59652403775E-04  3.64358407774E-04
  3.69125989212E-04  3.73955953819E-04  3.78849117874E-04  3.83806308330E-04
  3.88828362967E-04  3.93916130522E-04  3.99070470841E-04  4.04292255019E-04
  4.09582365550E-04  4.14941696476E-04  4.20371153537E-04  4.25871654323E-04
  4.31444128432E-04  4.37089517626E-04  4.42808775988E-04  4.48602870088E-04
  4.54472779140E-04  4.60419495174E-04  4.66444023198E-04  4.72547381372E-04
  4.78730601179E-04  4.84994727596E-04  4.91340819277E-04  4.97769948726E-04
  5.04283202481E-04  5.10881681297E-04  5.17566500333E-04  5.24338789340E-04
  5.31199692850E-04  5.38150370372E-04  5.45191996588E-04  5.52325761549E-04
  5.59552870879E-04  5.66874545975E-04  5.74292024219E-04  5.81806559181E-04
  5.89419420837E-04  5.97131895778E-04  6.04945287431E-04  6.12860916277E-04
  6.20880120076E-04  6.29004254094E-04  6.37234691327E-04  6.45572822740E-04
  6.54020057497E-04  6.62577823200E-04  6.71247566132E-04  6.80030751501E-04
  6.88928863685E-04  6.97943406486E-04  7.07075903385E-04  7.16327897794E-04
  7.25700953323E-04  7.35196654040E-04  7.44816604741E-04  7.54562431222E-04
  7.64435780549E-04  7.74438321343E-04  7.84571744056E-04  7.94837761261E-04
  8.05238107940E-04  8.15774541775E-04  8.26448843450E-04  8.37262816946E-04
  8.48218289851E-04  8.59317113666E-04  8.70561164118E-04  8.81952341479E-04
  8.93492570885E-04  9.05183802662E-04  9.17028012656E-04  9.29027202567E-04
  9.41183400286E-04  9.53498660240E-04  9.65975063737E-04  9.78614719319E-04
  9.91419763118E-04  1.00439235922E-03  1.01753470001E-03  1.03084900660E-03
  1.04433752912E-03  1.05800254716E-03  1.07184637016E-03  1.08587133774E-03
  1.10007982017E-03  1.11447421870E-03  1.12905696603E-03  1.14383052667E-03
  1.15879739739E-03  1.17396010764E-03  1.18932121993E-03  1.20488333034E-03
  1.22064906890E-03  1.23662110006E-03  1.25280212313E-03  1.26919487274E-03
  1.28580211930E-03  1.30262666948E-03  1.31967136667E-03  1.33693909147E-03
  1.35443276215E-03  1.37215533519E-03  1.39010980574E-03  1.40829920817E-03
  1.42672661651E-03  1.44539514505E-03  1.46430794880E-03  1.48346822408E-03
  1.50287920903E-03  1.52254418414E-03  1.54246647284E-03  1.56264944204E-03
  1.58309650272E-03  1.60381111048E-03  1.62479676613E-03  1.64605701630E-03
  1.66759545402E-03  1.68941571935E-03  1.71152149995E-03  1.73391653176E-03
  1.75660459959E-03  1.77958953778E-03  1.80287523084E-03  1.82646561410E-03
  1.85036467440E-03  1.87457645073E-03  1.89910503494E-03  1.92395457243E-03
  1.94912926281E-03  1.97463336069E-03  2.00047117629E-03  2.02664707629E-03
  2.05316548447E-03  2.08003088250E-03  2.10724781071E-03  2.13482086880E-03
  2.16275471671E-03  2.19105407531E-03  2.21972372726E-03  2.24876851781E-03
  2.27819335559E-03  2.30800321346E-03  2.33820312938E-03  2.36879820719E-03
  2.39979361753E-03  2.43119459871E-03  2.46300645756E-03  2.49523457036E-03
  2.52788438374E-03  2.56096141561E-03  2.59447125604E-03  2.62841956830E-03
  2.66281208972E-03  2.69765463271E-03  2.73295308576E-03  2.76871341439E-03
  2.80494166218E-03  2.84164395178E-03  2.87882648597E-03  2.91649554869E-03
  2.95465750610E-03  2.99331880766E-03  3.03248598723E-03  3.07216566414E-03
  3.11236454436E-03  3.15308942160E-03  3.19434717846E-03  3.23614478759E-03
  3.27848931289E-03  3.32138791069E-03  3.36484783095E-03  3.40887641851E-03
  3.45348111429E-03  3.49866945660E-03  3.54444908237E-03  3.59082772848E-03
  3.63781323302E-03  3.68541353665E-03  3.73363668395E-03  3.78249082473E-03
  3.83198421546E-03  3.88212522064E-03  3.93292231423E-03  3.98438408105E-03
  4.03651921826E-03  4.08933653682E-03  4.14284496300E-03  4.19705353983E-03
  4.25197142870E-03  4.30760791086E-03  4.36397238901E-03  4.42107438889E-03
  4.47892356085E-03  4.53752968156E-03  4.59690265559E-03  4.65705251710E-03
  4.71798943157E-03  4.77972369749E-03  4.84226574809E-03  4.90562615312E-03
  4.96981562066E-03  5.03484499885E-03  5.10072527784E-03  5.16746759154E-03
  5.23508321956E-03  5.30358358911E-03  5.37298027690E-03  5.44328501115E-03
  5.51450967353E-03  5.58666630116E-03  5.65976708869E-03  5.73382439034E-03
  5.80885072195E-03  5.88485876316E-03  5.96186135950E-03  6.03987152461E-03
  6.11890244238E-03  6.19896746923E-03  6.28008013633E-03  6.36225415192E-03
  6.44550340361E-03  6.52984196071E-03  6.61528407665E-03  6.70184419134E-03
  6.78953693365E-03  6.87837712386E-03  6.96837977618E-03  7.05956010126E-03
  7.15193350880E-03  7.24551561013E-03  7.34032222085E-03  7.43636936348E-03
  7.53367327024E-03  7.63225038572E-03  7.73211736967E-03  7.83329109986E-03
  7.93578867490E-03  8.03962741710E-03  8.14482487548E-03  8.25139882864E-03
  8.35936728785E-03  8.46874850002E-03  8.57956095085E-03  8.69182336789E-03
  8.80555472378E-03  8.92077423937E-03  9.03750138704E-03  9.15575589395E-03
  9.27555774540E-03  9.39692718819E-03  9.51988473404E-03  9.64445116306E-03
  9.77064752729E-03  9.89849515420E-03  1.00280156504E-02  1.01592309050E-02
  1.02921630939E-02  1.04268346828E-02  1.05632684316E-02  1.07014873979E-02
  1.08415149411E-02  1.09833747261E-02  1.11270907275E-02  1.12726872338E-02
  1.14201888510E-02  1.15696205074E-02  1.17210074571E-02  1.18743752850E-02
  1.20297499106E-02  1.21871575926E-02  1.23466249332E-02  1.25081788828E-02
  1.26718467443E-02  1.28376561782E-02  1.30056352065E-02  1.31758122181E-02
  1.33482159733E-02  1.35228756088E-02  1.36998206425E-02  1.38790809785E-02
  1.40606869121E-02  1.42446691354E-02  1.44310587416E-02  1.46198872311E-02
  1.48111865163E-02  1.50049889273E-02  1.52013272172E-02  1.54002345675E-02
  1.56017445941E-02  1.58058913527E-02  1.60127093446E-02  1.62222335224E-02
  1.64344992964E-02  1.66495425398E-02  1.68673995955E-02  1.70881072819E-02
  1.73117028991E-02  1.75382242353E-02  1.77677095732E-02  1.80001976962E-02
  1.82357278956E-02  1.84743399763E-02  1.87160742644E-02  1.89609716137E-02
  1.92090734122E-02  1.94604215900E-02  1.97150586252E-02  1.99730275523E-02
  2.02343719686E-02  2.04991360419E-02  2.07673645180E-02  2.10391027282E-02
  2.13143965967E-02  2.15932926491E-02  2.18758380192E-02  2.21620804581E-02
  2.24520683413E-02  2.27458506775E-02  2.30434771166E-02  2.33449979582E-02
  2.36504641600E-02  2.39599273465E-02  2.42734398178E-02  2.45910545582E-02
  2.49128252453E-02  2.52388062592E-02  2.55690526914E-02  2.59036203544E-02
  2.62425657909E-02  2.65859462834E-02  2.69338198642E-02  2.72862453246E-02
  2.76432822254E-02  2.80049909067E-02  2.83714324982E-02  2.87426689292E-02
  2.91187629397E-02  2.94997780905E-02  2.98857787739E-02  3.02768302251E-02
  3.06729985327E-02  3.10743506500E-02  3.14809544066E-02  3.18928785194E-02
  3.23101926045E-02  3.27329671891E-02  3.31612737231E-02  3.35951845912E-02
  3.40347731255E-02  3.44801136175E-02  3.49312813307E-02  3.53883525136E-02
  3.58514044124E-02  3.63205152838E-02  3.67957644087E-02  3.72772321054E-02
  3.77649997430E-02  3.82591497555E-02  3.87597656553E-02  3.92669320478E-02
  3.97807346453E-02  4.03012602816E-02  4.08285969268E-02  4.13628337021E-02
  4.19040608947E-02  4.24523699734E-02  4.30078536036E-02  4.35706056634E-02
  4.41407212593E-02  4.47182967422E-02  4.53034297236E-02  4.58962190925E-02
  4.64967650316E-02  4.71051690347E-02  4.77215339235E-02  4.83459638651E-02
  4.89785643896E-02  4.96194424082E-02  5.02687062305E-02  5.09264655839E-02
  5.15928316312E-02  5.22679169898E-02  5.29518357508E-02  5.36447034980E-02
  5.43466373279E-02  5.50577558687E-02  5.57781793014E-02  5.65080293792E-02
  5.72474294483E-02  5.79965044694E-02  5.87553810377E-02  5.95241874052E-02
  6.03030535021E-02  6.10921109586E-02  6.18914931272E-02  6.27013351055E-02
  6.35217737586E-02  6.43529477427E-02  6.51949975281E-02  6.60480654233E-02
  6.69122955988E-02  6.77878341114E-02  6.86748289294E-02  6.95734299569E-02
  7.04837890596E-02  7.14060600905E-02  7.23403989155E-02  7.32869634400E-02
  7.42459136358E-02  7.52174115678E-02  7.62016214213E-02  7.71987095302E-02
  7.82088444047E-02  7.92321967601E-02  8.02689395454E-02  8.13192479724E-02
  8.23832995459E-02  8.34612740932E-02  8.45533537944E-02  8.56597232136E-02
  8.67805693299E-02  8.79160815690E-02  8.90664518351E-02  9.02318745436E-02
  9.14125466536E-02  9.26086677016E-02  9.38204398349E-02  9.50480678457E-02
  9.62917592063E-02  9.75517241034E-02  9.88281754740E-02  1.00121329041E-01
  1.01431403352E-01  1.02758619811E-01  1.04103202721E-01  1.05465379320E-01
  1.06845379820E-01  1.08243437443E-01  1.09659788464E-01  1.11094672251E-01
  1.12548331302E-01  1.14021011289E-01  1.15512961098E-01  1.17024432872E-01
  1.18555682054E-01  1.20106967428E-01  1.21678551166E-01  1.23270698869E-01
  1.24883679613E-01  1.26517765996E-01  1.28173234182E-01  1.29850363951E-01
  1.31549438740E-01  1.33270745697E-01  1.35014575727E-01  1.36781223542E-01
  1.38570987710E-01  1.40384170704E-01  1.42221078957E-01  1.44082022911E-01
  1.45967317070E-01  1.47877280052E-01  1.49812234647E-01  1.51772507866E-01
  1.53758431001E-01  1.55770339676E-01  1.57808573909E-01  1.59873478167E-01
  1.61965401423E-01  1.64084697218E-01  1.66231723717E-01  1.68406843772E-01
  1.70610424986E-01  1.72842839767E-01  1.75104465399E-01  1.77395684103E-01
  1.79716883100E-01  1.82068454677E-01  1.84450796257E-01  1.86864310461E-01
  1.89309405177E-01  1.91786493634E-01  1.94295994465E-01  1.96838331781E-01
  1.99413935243E-01  2.02023240136E-01  2.04666687437E-01  2.07344723895E-01
  2.10057802105E-01  2.12806380583E-01  2.15590923846E-01  2.18411902489E-01
  2.21269793263E-01  2.24165079158E-01  2.27098249486E-01  2.30069799958E-01
  2.33080232774E-01  2.36130056704E-01  2.39219787175E-01  2.42349946361E-01
  2.45521063263E-01  2.48733673810E-01  2.51988320940E-01  2.55285554696E-01
  2.58625932318E-01  2.62010018338E-01  2.65438384675E-01  2.68911610730E-01
  2.72430283488E-01  2.75994997613E-01  2.79606355548E-01  2.83264967624E-01
  2.86971452153E-01  2.90726435540E-01  2.94530552387E-01  2.98384445599E-01
  3.02288766491E-01  3.06244174905E-01  3.10251339314E-01  3.14310936937E-01
  3.18423653856E-01  3.22590185131E-01  3.26811234915E-01  3.31087516576E-01
  3.35419752815E-01  3.39808675790E-01  3.44255027241E-01  3.48759558610E-01
  3.53323031175E-01  3.57946216173E-01  3.62629894934E-01  3.67374859009E-01
  3.72181910311E-01  3.77051861241E-01  3.81985534833E-01  3.86983764890E-01
  3.92047396124E-01  3.97177284301E-01  4.02374296384E-01  4.07639310681E-01
  4.12973216992E-01  4.18376916760E-01  4.23851323222E-01  4.29397361567E-01
  4.35015969087E-01  4.40708095342E-01  4.46474702314E-01  4.52316764574E-01
  4.58235269443E-01  4.64231217163E-01  4.70305621064E-01  4.76459507734E-01
  4.82693917195E-01  4.89009903077E-01  4.95408532796E-01  5.01890887737E-01
  5.08458063432E-01  5.15111169750E-01  5.21851331082E-01  5.28679686530E-01
  5.35597390104E-01  5.42605610912E-01  5.49705533360E-01  5.56898357351E-01
  5.64185298490E-01  5.71567588287E-01  5.79046474367E-01  5.86623220679E-01
  5.94299107712E-01  6.02075432708E-01  6.09953509886E-01  6.17934670658E-01
  6.26020263861E-01  6.34211655978E-01  6.42510231374E-01  6.50917392529E-01
  6.59434560273E-01  6.68063174026E-01  6.76804692046E-01  6.85660591670E-01
  6.94632369566E-01  7.03721541986E-01  7.12929645021E-01  7.22258234863E-01
  7.31708888066E-01  7.41283201812E-01  7.50982794184E-01  7.60809304435E-01
  7.70764393270E-01  7.80849743121E-01  7.91067058438E-01  8.01418065970E-01
  8.11904515063E-01  8.22528177952E-01  8.33290850060E-01  8.44194350305E-01
  8.55240521405E-01  8.66431230188E-01  8.77768367912E-01  8.89253850578E-01
  9.00889619262E-01  9.12677640436E-01  9.24619906304E-01  9.36718435136E-01
  9.48975271613E-01  9.61392487170E-01  9.73972180345E-01  9.86716477137E-01
  9.99627531362E-01  1.01270752502E+00  1.02595866866E+00  1.03938320175E+00
  1.05298339309E+00  1.06676154112E+00  1.08071997439E+00  1.09486105190E+00
  1.10918716355E+00  1.12370073046E+00  1.13840420547E+00  1.15330007350E+00
  1.16839085199E+00  1.18367909131E+00  1.19916737522E+00  1.21485832126E+00
  1.23075458126E+00  1.24685884170E+00  1.26317382427E+00  1.27970228621E+00
  1.29644702088E+00  1.31341085819E+00  1.33059666506E+00  1.34800734593E+00
  1.36564584325E+00  1.38351513797E+00  1.40161825004E+00  1.41995823893E+00
  1.43853820415E+00  1.45736128574E+00  1.47643066486E+00  1.49574956427E+00
  1.51532124893E+00  1.53514902648E+00  1.55523624786E+00  1.57558630788E+00
  1.59620264573E+00  1.61708874563E+00  1.63824813738E+00  1.65968439696E+00
  1.68140114715E+00  1.70340205814E+00  1.72569084813E+00  1.74827128398E+00
  1.77114718184E+00  1.79432240779E+00  1.81780087850E+00  1.84158656188E+00
  1.86568347777E+00  1.89009569862E+00  1.91482735013E+00  1.93988261202E+00
  1.96526571870E+00  1.99098095995E+00  2.01703268173E+00  2.04342528683E+00
  2.07016323567E+00  2.09725104702E+00  2.12469329879E+00  2.15249462878E+00
  2.18065973550E+00  2.20919337889E+00  2.23810038123E+00  2.26738562785E+00
  2.29705406805E+00  2.32711071584E+00  2.35756065089E+00  2.38840901930E+00
  2.41966103452E+00  2.45132197821E+00  2.48339720115E+00  2.51589212413E+00
  2.54881223887E+00  2.58216310894E+00  2.61595037072E+00  2.65017973434E+00
  2.68485698465E+00  2.71998798217E+00  2.75557866414E+00  2.79163504546E+00
  2.82816321974E+00  2.86516936035E+00  2.90265972139E+00  2.94064063883E+00
  2.97911853155E+00  3.01809990238E+00  3.05759133928E+00  3.09759951640E+00
  3.13813119520E+00  3.17919322565E+00  3.22079254732E+00  3.26293619059E+00
  3.30563127785E+00  3.34888502466E+00  3.39270474101E+00  3.43709783254E+00
  3.48207180178E+00  3.52763424945E+00  3.57379287569E+00  3.62055548144E+00
  3.66792996969E+00  3.71592434683E+00  3.76454672402E+00  3.81380531858E+00
  3.86370845531E+00  3.91426456796E+00  3.96548220064E+00  4.01737000926E+00
  4.06993676296E+00  4.12319134567E+00  4.17714275753E+00  4.23180011645E+00
  4.28717265967E+00  4.34326974527E+00  4.40010085379E+00  4.45767558984E+00
  4.51600368366E+00  4.57509499286E+00  4.63495950400E+00  4.69560733433E+00
  4.75704873347E+00  4.81929408517E+00  4.88235390905E+00  4.94623886235E+00
  5.01095974179E+00  5.07652748536E+00  5.14295317415E+00  5.21024803427E+00
  5.27842343872E+00  5.34749090928E+00  5.41746211854E+00  5.48834889178E+00
  5.56016320906E+00  5.63291720715E+00  5.70662318165E+00  5.78129358905E+00
  5.85694104884E+00  5.93357834559E+00  6.01121843121E+00  6.08987442706E+00
  6.16955962617E+00  6.25028749555E+00  6.33207167839E+00  6.41492599642E+00
  6.49886445220E+00  6.58390123155E+00  6.67005070587E+00  6.75732743464E+00
  6.84574616783E+00  6.93532184842E+00  7.02606961490E+00  7.11800480387E+00
  7.21114295260E+00  7.30549980164E+00  7.40109129755E+00  7.49793359549E+00
  7.59604306206E+00  7.69543627799E+00  7.79613004096E+00  7.89814136847E+00
  8.00148750066E+00  8.10618590329E+00  8.21225427063E+00  8.31971052849E+00
  8.42857283722E+00  8.53885959483E+00  8.65058944003E+00  8.76378125544E+00
  8.87845417074E+00  8.99462756592E+00  9.11232107457E+00  9.23155458717E+00
  9.35234825447E+00  9.47472249088E+00  9.59869797795E+00  9.72429566782E+00
  9.85153678680E+00  9.98044283894E+00  1.01110356097E+01  1.02433371695E+01
  1.03773698777E+01  1.05131563861E+01  1.06507196429E+01  1.07900828967E+01
  1.09312697002E+01  1.10743039144E+01  1.12192097122E+01  1.13660115831E+01
  1.15147343371E+01  1.16654031086E+01  1.18180433610E+01  1.19726808908E+01
  1.21293418322E+01  1.22880526612E+01  1.24488402004E+01  1.26117316232E+01
  1.27767544587E+01  1.29439365961E+01  1.31133062895E+01  1.32848921630E+01
  1.34587232148E+01  1.36348288229E+01  1.38132387496E+01  1.39939831464E+01
  1.41770925597E+01  1.43625979354E+01  1.45505306243E+01  1.47409223876E+01
  1.49338054018E+01  1.51292122646E+01  1.53271760004E+01  1.55277300653E+01
  1.57309083536E+01  1.59367452029E+01  1.61452754000E+01  1.63565341871E+01
  1.65705572674E+01  1.67873808113E+01  1.70070414626E+01  1.72295763443E+01
  1.74550230654E+01  1.76834197270E+01  1.79148049286E+01  1.81492177749E+01
  1.83866978821E+01  1.86272853851E+01  1.88710209436E+01  1.91179457496E+01
  1.93681015340E+01  1.96215305735E+01  1.98782756985E+01  2.01383802994E+01
  2.04018883344E+01  2.06688443372E+01  2.09392934238E+01  2.12132813008E+01
  2.14908542729E+01  2.17720592505E+01  2.20569437580E+01  2.23455559414E+01
  2.26379445770E+01  2.29341590791E+01  2.32342495086E+01  2.35382665817E+01
  2.38462616778E+01  2.41582868489E+01  2.44743948279E+01  2.47946390379E+01
  2.51190736010E+01  2.54477533473E+01  2.57807338244E+01  2.61180713069E+01
  2.64598228057E+01  2.68060460775E+01  2.71567996348E+01  2.75121427560E+01
  2.78721354947E+01  2.82368386907E+01  2.86063139796E+01  2.89806238037E+01
  2.93598314222E+01  2.97440009220E+01  3.01331972289E+01  3.05274861177E+01
  3.09269342244E+01  3.13316090566E+01  3.17415790053E+01  3.21569133563E+01
  3.25776823023E+01  3.30039569541E+01  3.34358093532E+01  3.38733124837E+01
  3.43165402845E+01  3.47655676624E+01  3.52204705040E+01  3.56813256889E+01
  3.61482111027E+01  3.66212056503E+01  3.71003892688E+01  3.75858429414E+01
  3.80776487109E+01  3.85758896936E+01  3.90806500935E+01  3.95920152164E+01
  4.01100714840E+01  4.06349064491E+01  4.11666088102E+01  4.17052684261E+01
  4.22509763317E+01  4.28038247528E+01  4.33639071222E+01  4.39313180951E+01
  4.45061535653E+01  4.50885106814E+01  4.56784878631E+01  4.62761848180E+01
  4.68817025583E+01  4.74951434178E+01  4.81166110697E+01  4.87462105434E+01
  4.93840482426E+01  5.00302319636E+01  5.06848709128E+01  5.13480757258E+01
  5.20199584859E+01  5.27006327427E+01  5.33902135319E+01  5.40888173943E+01
  5.47965623956E+01  5.55135681463E+01  5.62399558222E+01  5.69758481844E+01
  5.77213696006E+01  5.84766460657E+01  5.92418052231E+01  6.00169763866E+01
  6.08022905619E+01  6.15978804691E+01  6.24038805647E+01  6.32204270646E+01
  6.40476579672E+01  6.48857130764E+01  6.57347340255E+01  6.65948643012E+01
  6.74662492674E+01  6.83490361904E+01  6.92433742631E+01  7.01494146309E+01
  7.10673104167E+01  7.19972167471E+01  7.29392907785E+01  7.38936917237E+01
  7.48605808786E+01  7.58401216499E+01  7.68324795822E+01  7.78378223865E+01
  7.88563199680E+01  7.98881444552E+01  8.09334702290E+01  8.19924739520E+01
  8.30653345981E+01  8.41522334835E+01  8.52533542967E+01  8.63688831297E+01
  8.74990085094E+01  8.86439214299E+01  8.98038153840E+01  9.09788863968E+01
  9.21693330578E+01  9.33753565555E+01  9.45971607107E+01  9.58349520112E+01
  9.70889396467E+01  9.83593355441E+01  9.96463544033E+01  1.00950213734E+02
  1.02271133890E+02  1.03609338112E+02  1.04965052558E+02  1.06338506348E+02
  1.07729931599E+02  1.09139563465E+02  1.10567640177E+02  1.12014403083E+02
  1.13480096689E+02  1.14964968702E+02  1.16469270069E+02  1.17993255019E+02
  </PP_R>
  <PP_RAB>
  4.38819153601E-07  4.44561044020E-07  4.50378066315E-07  4.56271203574E-07
  4.62241451753E-07  4.68289819838E-07  4.74417330016E-07  4.80625017853E-07
  4.86913932461E-07  4.93285136683E-07  4.99739707267E-07  5.06278735051E-07
  5.12903325146E-07  5.19614597124E-07  5.26413685206E-07  5.33301738453E-07
  5.40279920963E-07  5.47349412066E-07  5.54511406523E-07  5.61767114727E-07
  5.69117762910E-07  5.76564593350E-07  5.84108864578E-07  5.91751851595E-07
  5.99494846083E-07  6.07339156627E-07  6.15286108934E-07  6.23337046057E-07
  6.31493328625E-07  6.39756335069E-07  6.48127461856E-07  6.56608123727E-07
  6.65199753933E-07  6.73903804481E-07  6.82721746376E-07  6.91655069871E-07
  7.00705284719E-07  7.09873920428E-07  7.19162526519E-07  7.28572672788E-07
  7.38105949574E-07  7.47763968021E-07  7.57548360359E-07  7.67460780173E-07
  7.77502902686E-07  7.87676425039E-07  7.97983066583E-07  8.08424569165E-07
  8.19002697423E-07  8.29719239086E-07  8.40576005275E-07  8.51574830810E-07
  8.62717574518E-07  8.74006119550E-07  8.85442373696E-07  8.97028269710E-07
  9.08765765638E-07  9.20656845142E-07  9.32703517845E-07  9.44907819662E-07
  9.57271813149E-07  9.69797587852E-07  9.82487260654E-07  9.95342976143E-07
  1.00836690696E-06  1.02156125419E-06  1.03492824770E-06  1.04847014655E-06
  1.06218923935E-06  1.07608784466E-06  1.09016831137E-06  1.10443301913E-06
  1.11888437869E-06  1.13352483237E-06  1.14835685445E-06  1.16338295158E-06
  1.17860566319E-06  1.19402756196E-06  1.20965125423E-06  1.22547938044E-06
  1.24151461559E-06  1.25775966966E-06  1.27421728811E-06  1.29089025231E-06
  1.30778138004E-06  1.32489352593E-06  1.34222958198E-06  1.35979247803E-06
  1.37758518224E-06  1.39561070163E-06  1.41387208255E-06  1.43237241121E-06
  1.45111481422E-06  1.47010245909E-06  1.48933855477E-06  1.50882635221E-06
  1.52856914490E-06  1.54857026941E-06  1.56883310599E-06  1.58936107909E-06
  1.61015765799E-06  1.63122635738E-06  1.65257073790E-06  1.67419440681E-06
  1.69610101855E-06  1.71829427541E-06  1.74077792809E-06  1.76355577638E-06
  1.78663166980E-06  1.81000950822E-06  1.83369324255E-06  1.85768687541E-06
  1.88199446177E-06  1.90662010967E-06  1.93156798091E-06  1.95684229174E-06
  1.98244731357E-06  2.00838737372E-06  2.03466685611E-06  2.06129020204E-06
  2.08826191093E-06  2.11558654105E-06  2.14326871032E-06  2.17131309711E-06
  2.19972444099E-06  2.22850754352E-06  2.25766726914E-06  2.28720854590E-06
  2.31713636635E-06  2.34745578836E-06  2.37817193598E-06  2.40929000032E-06
  2.44081524041E-06  2.47275298408E-06  2.50510862889E-06  2.53788764302E-06
  2.57109556620E-06  2.60473801066E-06  2.63882066203E-06  2.67334928038E-06
  2.70832970112E-06  2.74376783603E-06  2.77966967423E-06  2.81604128322E-06
  2.85288880989E-06  2.89021848156E-06  2.92803660703E-06  2.96634957766E-06
  3.00516386843E-06  3.04448603904E-06  3.08432273504E-06  3.12468068892E-06
  3.16556672128E-06  3.20698774194E-06  3.24895075117E-06  3.29146284081E-06
  3.33453119550E-06  3.37816309390E-06  3.42236590990E-06  3.46714711389E-06
  3.51251427399E-06  3.55847505737E-06  3.60503723150E-06  3.65220866550E-06
  3.69999733146E-06  3.74841130577E-06  3.79745877052E-06  3.84714801483E-06
  3.89748743632E-06  3.94848554246E-06  4.00015095206E-06  4.05249239668E-06
  4.10551872217E-06  4.15923889009E-06  4.21366197929E-06  4.26879718739E-06
  4.32465383237E-06  4.38124135414E-06  4.43856931613E-06  4.49664740690E-06
  4.55548544179E-06  4.61509336455E-06  4.67548124908E-06  4.73665930107E-06
  4.79863785975E-06  4.86142739965E-06  4.92503853236E-06  4.98948200829E-06
  5.05476871857E-06  5.12090969678E-06  5.18791612093E-06  5.25579931524E-06
  5.32457075215E-06  5.39424205419E-06  5.46482499598E-06  5.53633150620E-06
  5.60877366962E-06  5.68216372913E-06  5.75651408785E-06  5.83183731114E-06
  5.90814612882E-06  5.98545343726E-06  6.06377230157E-06  6.14311595784E-06
  6.22349781532E-06  6.30493145875E-06  6.38743065060E-06  6.47100933343E-06
  6.55568163225E-06  6.64146185686E-06  6.72836450433E-06  6.81640426142E-06
  6.90559600705E-06  6.99595481484E-06  7.08749595565E-06  7.18023490014E-06
  7.27418732142E-06  7.36936909767E-06  7.46579631484E-06  7.56348526936E-06
  7.66245247088E-06  7.76271464512E-06  7.86428873660E-06  7.96719191160E-06
  8.07144156099E-06  8.17705530322E-06  8.28405098726E-06  8.39244669563E-06
  8.50226074746E-06  8.61351170160E-06  8.72621835972E-06  8.84039976951E-06
  8.95607522790E-06  9.07326428432E-06  9.19198674400E-06  9.31226267132E-06
  9.43411239320E-06  9.55755650252E-06  9.68261586164E-06  9.80931160588E-06
  9.93766514714E-06  1.00676981775E-05  1.01994326727E-05  1.03328908964E-05
  1.04680954032E-05  1.06050690431E-05  1.07438349648E-05  1.08844166203E-05
  1.10268377681E-05  1.11711224777E-05  1.13172951335E-05  1.14653804392E-05
  1.16154034215E-05  1.17673894346E-05  1.19213641645E-05  1.20773536334E-05
  1.22353842037E-05  1.23954825831E-05  1.25576758286E-05  1.27219913511E-05
  1.28884569205E-05  1.30571006698E-05  1.32279511002E-05  1.34010370858E-05
  1.35763878785E-05  1.37540331131E-05  1.39340028121E-05  1.41163273907E-05
  1.43010376622E-05  1.44881648431E-05  1.46777405584E-05  1.48697968467E-05
  1.50643661661E-05  1.52614813993E-05  1.54611758591E-05  1.56634832944E-05
  1.58684378957E-05  1.60760743008E-05  1.62864276007E-05  1.64995333456E-05
  1.67154275509E-05  1.69341467033E-05  1.71557277668E-05  1.73802081891E-05
  1.76076259079E-05  1.78380193574E-05  1.80714274747E-05  1.83078897062E-05
  1.85474460146E-05  1.87901368856E-05  1.90360033344E-05  1.92850869131E-05
  1.95374297174E-05  1.97930743938E-05  2.00520641469E-05  2.03144427465E-05
  2.05802545353E-05  2.08495444362E-05  2.11223579596E-05  2.13987412119E-05
  2.16787409023E-05  2.19624043515E-05  2.22497794994E-05  2.25409149129E-05
  2.28358597947E-05  2.31346639912E-05  2.34373780009E-05  2.37440529833E-05
  2.40547407672E-05  2.43694938595E-05  2.46883654543E-05  2.50114094416E-05
  2.53386804166E-05  2.56702336889E-05  2.60061252918E-05  2.63464119918E-05
  2.66911512981E-05  2.70404014726E-05  2.73942215392E-05  2.77526712944E-05
  2.81158113172E-05  2.84837029790E-05  2.88564084544E-05  2.92339907315E-05