                                                                                     
                             WELCOME TO ABACUS                                       
                                                                                     
               'Atomic-orbital Based Ab-initio Computation at UStc'                  
                                                                                     
                     Website: http://abacus.ustc.edu.cn/                             
                                                                                     
    Version: Parallel, v2.0.0
    Processor Number is 8
    Start Time is Wed Oct  9 18:58:33 2019
                                                                                     
 ------------------------------------------------------------------------------------

 READING GENERAL INFORMATION
                           global_out_dir = OUT.Si-6-2.8/
                           global_in_card = INPUT
                               pseudo_dir = ./
                              pseudo_type = auto
                                    DRANK = 1
                                    DSIZE = 8
                                   DCOLOR = 1
                                    GRANK = 1
                                    GSIZE = 1
Open file : INPUTw




 >>>>>>>>>>>>>>>>>>>>>>>>>>>>>>>>>>>>>>>>>>>>>>>>>>>>>>>>>>>>>>>>>>>>>>
 |                                                                    |
 | Reading atom information in unitcell:                              |
 | From the input file and the structure file we know the number of   |
 | different elments in this unitcell, then we list the detail        |
 | information for each element, especially the zeta and polar atomic |
 | orbital number for each element. The total atom number is counted. |
 | We calculate the nearest atom distance for each atom and show the  |
 | Cartesian and Direct coordinates for each atom. We list the file   |
 | address for atomic orbitals and nonlocal projectors. The volume    |
 | and the lattice vectors in real and reciprocal space is also shown.|
 |                                                                    |
 <<<<<<<<<<<<<<<<<<<<<<<<<<<<<<<<<<<<<<<<<<<<<<<<<<<<<<<<<<<<<<<<<<<<<<




 READING UNITCELL INFORMATION
                                    ntype = 1
                 atom label for species 1 = Si
                  lattice constant (Bohr) = 20
              lattice constant (Angstrom) = 10.5835

 READING ATOM TYPE 1
                               atom label = Si
                      start magnetization = FALSE
                      L=0, number of zeta = 1
                      L=1, number of zeta = 1
                      L=2, number of zeta = 1
             number of atom for this type = 2

                        TOTAL ATOM NUMBER = 2

 Output nearest atom not considering periodic boundary condition
  TYPE INDEX       NEAREST(Bohr)   NEAREST(Angstrom)
    Si     1                   0                   0
    Si     2                   0                   0

 CARTESIAN COORDINATES ( UNIT = 20 Bohr ).
         atom                   x                   y                   z                 mag
     tauc_Si1                   0                   0                   0                   0
     tauc_Si2                   0                   0      0.264561762888                   0


                          Volume (Bohr^3) = 8000
                             Volume (A^3) = 1185.47627437

 Lattice vectors: (Cartesian coordinate: in unit of a_0)
                   +1                  +0                  +0
                   +0                  +1                  +0
                   +0                  +0                  +1
 Reciprocal vectors: (Cartesian coordinate: in unit of 2 pi/a_0)
                   +1                  +0                  +0
                   +0                  +1                  +0
                   +0                  -0                  +1




 >>>>>>>>>>>>>>>>>>>>>>>>>>>>>>>>>>>>>>>>>>>>>>>>>>>>>>>>>>>>>>>>>>>>>>
 |                                                                    |
 | Reading pseudopotentials files:                                    |
 | The pseudopotential file is in UPF format. The 'NC' indicates that |
 | the type of pseudopotential is 'norm conserving'. Functional of    |
 | exchange and correlation is decided by 4 given parameters in UPF   |
 | file.  We also read in the 'core correction' if there exists.      |
 | Also we can read the valence electrons number and the maximal      |
 | angular momentum used in this pseudopotential. We also read in the |
 | trail wave function, trail atomic density and local-pseudopotential|
 | on logrithmic grid. The non-local pseudopotential projector is also|
 | read in if there is any.                                           |
 |                                                                    |
 <<<<<<<<<<<<<<<<<<<<<<<<<<<<<<<<<<<<<<<<<<<<<<<<<<<<<<<<<<<<<<<<<<<<<<




                PAO radial cut off (Bohr) = 14

 Read in pseudopotential file is Si_ONCV_PBE-1.0.upf
                     pseudopotential type = NC
                            functional Ex = PBE
                            functional Ec = 
                          functional GCEx = 
                          functional GCEc = 
                 nonlocal core correction = 0
                        valence electrons = 4
                                     lmax = 1
                           number of zeta = 0
                     number of projectors = 4
                           L of projector = 0
                           L of projector = 0
                           L of projector = 1
                           L of projector = 1

 SETUP THE ELECTRONS NUMBER
            electron number of element Si = 4
      total electron number of element Si = 8
                           occupied bands = 4
                                   NBANDS = 8
     initial pseudo atomic orbital number = 0
                                   NLOCAL = 18
 DONE : SETUP UNITCELL Time : 0.0461258888245 (SEC)





 >>>>>>>>>>>>>>>>>>>>>>>>>>>>>>>>>>>>>>>>>>>>>>>>>>>>>>>>>>>>>>>>>>>>>>
 |                                                                    |
 | Setup K-points                                                     |
 | We setup the k-points according to input parameters.               |
 | The reduced k-points are set according to symmetry operations.     |
 | We treat the spin as another set of k-points.                      |
 |                                                                    |
 <<<<<<<<<<<<<<<<<<<<<<<<<<<<<<<<<<<<<<<<<<<<<<<<<<<<<<<<<<<<<<<<<<<<<<





 SETUP K-POINTS
                                    nspin = 1
                   Input type of k points = Monkhorst-Pack(Gamma)
                                   nkstot = 1

  KPOINTS            DIRECT_X            DIRECT_Y            DIRECT_Z              WEIGHT
        1                   0                   0                   0                   1

           k-point number in this process = 1
       minimum distributed K point number = 1

  KPOINTS         CARTESIAN_X         CARTESIAN_Y         CARTESIAN_Z              WEIGHT
        1                   0                   0                   0                   2

  KPOINTS            DIRECT_X            DIRECT_Y            DIRECT_Z              WEIGHT
        1                   0                   0                   0                   2
 DONE : INIT K-POINTS Time : 0.0469017028809 (SEC)





 >>>>>>>>>>>>>>>>>>>>>>>>>>>>>>>>>>>>>>>>>>>>>>>>>>>>>>>>>>>>>>>>>>>>>>
 |                                                                    |
 | Setup plane waves:                                                 |
 | Use the energy cutoff and the lattice vectors to generate the      |
 | dimensions of FFT grid. The number of FFT grid on each processor   |
 | is 'nrxx'. The number of plane wave basis in reciprocal space is   |
 | different for charege/potential and wave functions. We also set    |
 | the 'sticks' for the parallel of FFT.                              |
 |                                                                    |
 <<<<<<<<<<<<<<<<<<<<<<<<<<<<<<<<<<<<<<<<<<<<<<<<<<<<<<<<<<<<<<<<<<<<<<





 SETUP THE PLANE WAVE BASIS
     energy cutoff for wavefunc (unit:Ry) = 100
            [fft grid for wave functions] = 128, 128, 128
          [fft grid for charge/potential] = 128, 128, 128
                      [fft grid division] = 1, 1, 1
      [big fft grid for charge/potential] = 128, 128, 128
                                     nbxx = 262144
                                     nrxx = 262144

 SETUP PLANE WAVES FOR CHARGE/POTENTIAL
                    number of plane waves = 1080751
                         number of sticks = 12745

 SETUP PLANE WAVES FOR WAVE FUNCTIONS
                    number of plane waves = 135043
                         number of sticks = 3181

 PARALLEL PW FOR CHARGE/POTENTIAL
     PROC   COLUMNS(POT)             PW
        1           1592         135094
        2           1592         135094
        3           1593         135095
        4           1594         135094
        5           1594         135094
        6           1594         135094
        7           1593         135093
        8           1593         135093
 --------------- sum -------------------
        8          12745        1080751

 PARALLEL PW FOR WAVE FUNCTIONS
     PROC     COLUMNS(W)             PW
        1            399          16877
        2            404          16880
        3            397          16877
        4            399          16887
        5            396          16882
        6            396          16886
        7            394          16878
        8            396          16876
 --------------- sum -------------------
        8           3181         135043

 SETUP COORDINATES OF PLANE WAVES
              number of total plane waves = 1080751

 SETUP COORDINATES OF PLANE WAVES
                            number of |g| = 3355
                                  max |g| = 4052
                                  min |g| = 0
 DONE : INIT PLANEWAVE Time : 0.643302679062 (SEC)

                                     npwx = 16877

 SETUP NONLOCAL PSEUDOPOTENTIALS IN PLANE WAVE BASIS
 Si non-local projectors:
 projector 1 L=0
 projector 2 L=0
 projector 3 L=1
 projector 4 L=1
      TOTAL NUMBER OF NONLOCAL PROJECTORS = 16
 DONE : LOCAL POTENTIAL Time : 0.733051538467 (SEC)


 Init Non-Local PseudoPotential table : 
 Init Non-Local-Pseudopotential done.
 DONE : NON-LOCAL POTENTIAL Time : 0.766491413116 (SEC)

                                start_pot = atomic
 DONE : INIT POTENTIAL Time : 1.03872 (SEC)


 Make real space PAO into reciprocal space.
       max mesh points in Pseudopotential = 601
     dq(describe PAO in reciprocal space) = 0.01
                                    max q = 1206

 number of pseudo atomic orbitals for Si is 0
 DONE : INIT BASIS Time : 1.23681 (SEC)

 -------------------------------------------
 -------------------------------------------

 PW ALGORITHM --------------- ION=   1  ELEC=   1--------------------------------
  K-point    CG iter num      Time(Sec)
 Energy (eV) & Occupations  for spin=1 K-point=1
      1     -11.247960       1.000000
      2      -9.550443       1.000000
      3      -4.726136       1.000000
      4      -4.144896       1.000000
      5      -4.222180       1.000000
      6      -2.882344       1.000000
      7      -2.912611       1.000000
      8      -0.740044       1.000000
        1       8.750000       1.330000
 Notice: Threshold on eigenvalues was too large.
 dr2=0.042975 < diago_error=0.080000
 Origin ETHR = 0.010000
 New    ETHR = 0.005372

 Density error is 0.042975462239
                          Error Threshold = 0.005371932780

       Energy                       Rydberg                            eV
   E_KohnSham              -15.394436111756             -209.452048616849
     E_Harris              -15.235718816310             -207.292589027635
       E_band               -4.368777802385              -59.440271408348
   E_one_elec              -17.796195320989             -242.129659086393
    E_Hartree               +9.465612258792             +128.786261778215
         E_xc               -4.107761068222              -55.888956550389
      E_Ewald               -2.772259690983              -37.718528133087
      E_demet               -0.010409343408               -0.141626382794
      E_descf               -0.173422946945               -2.359540242401
     E_efield               +0.000000000000               +0.000000000000
      E_Fermi               -0.307484291306               -4.183538407252

 PW ALGORITHM --------------- ION=   1  ELEC=   2--------------------------------
  K-point    CG iter num      Time(Sec)
 Energy (eV) & Occupations  for spin=1 K-point=1
      1     -11.005896       2.000000
      2      -9.219857       2.000000
      3      -4.466864       2.000000
      4      -4.186019       0.687938
      5      -4.082254       1.312062
      6      -2.729108       0.000000
      7      -2.604392       0.000000
      8      -0.616257       0.000000
        1       4.000000       0.680000

 Density error is 0.168530050780
                          Error Threshold = 0.000537193278

       Energy                       Rydberg                            eV
   E_KohnSham              -15.205701552017             -206.884183194869
     E_Harris              -15.285002389493             -207.963126440715
       E_band               -4.240569192077              -57.695903775509
   E_one_elec              -17.657480187741             -240.242342875384
    E_Hartree               +9.385558380901             +127.697072891909
         E_xc               -4.089249606811              -55.637095196889
      E_Ewald               -2.772259690983              -37.718528133087
      E_demet               -0.009770953436               -0.132940641625
      E_descf               -0.062499493947               -0.850349239792
     E_efield               +0.000000000000               +0.000000000000
      E_Fermi               -0.303850565345               -4.134099029211

 PW ALGORITHM --------------- ION=   1  ELEC=   3--------------------------------
  K-point    CG iter num      Time(Sec)
 Energy (eV) & Occupations  for spin=1 K-point=1
      1     -11.358623       2.000000
      2      -9.162051       2.000000
      3      -4.605130       1.999458
      4      -4.440302       1.410578
      5      -4.407177       0.589964
      6      -2.629470       0.000000
      7      -2.605357       0.000000
      8      -0.669590       0.000000
        1       3.000000       0.550000

 Density error is 0.369006397841
                          Error Threshold = 0.000537193278

       Energy                       Rydberg                            eV
   E_KohnSham              -15.212038256606             -206.970398483825
     E_Harris              -15.315304705089             -208.375410595422
       E_band               -4.343302932369              -59.093668020331
   E_one_elec              -17.688218489421             -240.660558925081
    E_Hartree               +9.368344165135             +127.462861470890
         E_xc               -4.086879417250              -55.604847113513
      E_Ewald               -2.772259690983              -37.718528133087
      E_demet               -0.012003925694               -0.163321787804
      E_descf               -0.021020898393               -0.286003995229
     E_efield               +0.000000000000               +0.000000000000
      E_Fermi               -0.324892159992               -4.420384611419

 PW ALGORITHM --------------- ION=   1  ELEC=   4--------------------------------
  K-point    CG iter num      Time(Sec)
 Energy (eV) & Occupations  for spin=1 K-point=1
      1     -11.147177       2.000000
      2      -9.369190       2.000000
      3      -4.572393       1.945179
      4      -4.226565       1.164011
      5      -4.218529       0.890810
      6      -2.819785       0.000000
      7      -2.816543       0.000000
      8      -0.723178       0.000000
        1       2.500000       0.480000

 Density error is 0.012365791594
                          Error Threshold = 0.000537193278

       Energy                       Rydberg                            eV
   E_KohnSham              -15.260563267838             -207.630615132100
     E_Harris              -15.263503772558             -207.670622751291
       E_band               -4.308693660017              -58.622784712711
   E_one_elec              -17.728067874842             -241.202737628601
    E_Hartree               +9.348953654847             +127.199040043844
         E_xc               -4.080619488057              -55.519676407418
      E_Ewald               -2.772259690983              -37.718528133087
      E_demet               -0.011281536597               -0.153493179912
      E_descf               -0.017288332206               -0.235219826925
     E_efield               +0.000000000000               +0.000000000000
      E_Fermi               -0.310350152946               -4.222530455237

 PW ALGORITHM --------------- ION=   1  ELEC=   5--------------------------------
  K-point    CG iter num      Time(Sec)
 Energy (eV) & Occupations  for spin=1 K-point=1
      1     -11.171982       2.000000
      2      -9.408843       2.000000
      3      -4.597285       1.999724
      4      -4.242203       1.033450
      5      -4.242489       0.966826
      6      -2.852557       0.000000
      7      -2.851751       0.000000
      8      -0.762900       0.000000
        1       2.500000       0.460000

 Density error is 0.000456833524
                          Error Threshold = 0.000154572395

       Energy                       Rydberg                            eV
   E_KohnSham              -15.261838834301             -207.647970104167
     E_Harris              -15.261923572133             -207.649123021520
       E_band               -4.324719785819              -58.840831340482
   E_one_elec              -17.738273383071             -241.341590691497
    E_Hartree               +9.338163096869             +127.052226970750
         E_xc               -4.075921259829              -55.455753733007
      E_Ewald               -2.772259690983              -37.718528133087
      E_demet               -0.011290024630               -0.153608665532
      E_descf               -0.002257572658               -0.030715851793
     E_efield               +0.000000000000               +0.000000000000
      E_Fermi               -0.311805569388               -4.242332411812

 PW ALGORITHM --------------- ION=   1  ELEC=   6--------------------------------
  K-point    CG iter num      Time(Sec)
 Energy (eV) & Occupations  for spin=1 K-point=1
      1     -11.185037       2.000000
      2      -9.432525       2.000000
      3      -4.612031       1.999775
      4      -4.255426       0.998923
      5      -4.255390       1.001302
      6      -2.870282       0.000000
      7      -2.870085       0.000000
      8      -0.778444       0.000000
        1       3.375000       0.580000

 Density error is 0.000021782667
                          Error Threshold = 0.000005710419

       Energy                       Rydberg                            eV
   E_KohnSham              -15.261928231357             -207.649186413518
     E_Harris              -15.261928787871             -207.649193985280
       E_band               -4.334207996875              -58.969925074672
   E_one_elec              -17.746621192927             -241.455168471367
    E_Hartree               +9.341231566051             +127.093975635761
         E_xc               -4.076717893575              -55.466592491179
      E_Ewald               -2.772259690983              -37.718528133087
      E_demet               -0.011289645669               -0.153603509493
      E_descf               +0.003728625745               +0.050730555847
     E_efield               +0.000000000000               +0.000000000000
      E_Fermi               -0.312765664844               -4.255395180641

 PW ALGORITHM --------------- ION=   1  ELEC=   7--------------------------------
  K-point    CG iter num      Time(Sec)
 Energy (eV) & Occupations  for spin=1 K-point=1
      1     -11.179859       2.000000
      2      -9.427400       2.000000
      3      -4.606973       1.999790
      4      -4.251543       1.000252
      5      -4.251453       0.999958
      6      -2.866026       0.000000
      7      -2.865900       0.000000
      8      -0.774136       0.000000
        1       3.250000       0.560000

 Density error is 0.000002804266
                          Error Threshold = 0.000000272283

       Energy                       Rydberg                            eV
   E_KohnSham              -15.261932230451             -207.649240823987
     E_Harris              -15.261931402630             -207.649229560907
       E_band               -4.331375178682              -58.931382605838
   E_one_elec              -17.745945279366             -241.445972195583
    E_Hartree               +9.343776954808             +127.128607426479
         E_xc               -4.077401915952              -55.475899093071
      E_Ewald               -2.772259690983              -37.718528133087
      E_demet               -0.011289908706               -0.153607088307
      E_descf               +0.001187609749               +0.016158259582
     E_efield               +0.000000000000               +0.000000000000
      E_Fermi               -0.312478261325               -4.251484855155

 PW ALGORITHM --------------- ION=   1  ELEC=   8--------------------------------
  K-point    CG iter num      Time(Sec)
 Energy (eV) & Occupations  for spin=1 K-point=1
      1     -11.175761       2.000000
      2      -9.423009       2.000000
      3      -4.602764       1.999780
      4      -4.248297       1.000482
      5      -4.248266       0.999737
      6      -2.862384       0.000000
      7      -2.862316       0.000000
      8      -0.770391       0.000000
        1       2.875000       0.510000

 Density error is 0.000002805865
                          Error Threshold = 0.000000035053

       Energy                       Rydberg                            eV
   E_KohnSham              -15.261932598144             -207.649245826701
     E_Harris              -15.261933017723             -207.649251535372
       E_band               -4.329035631627              -58.899551435150
   E_one_elec              -17.745175137665             -241.435493880184
    E_Hartree               +9.344336162955             +127.136215843648
         E_xc               -4.077571304956              -55.478203748699
      E_Ewald               -2.772259690983              -37.718528133087
      E_demet               -0.011290147119               -0.153610332077
      E_descf               +0.000027519624               +0.000374423699
     E_efield               +0.000000000000               +0.000000000000
      E_Fermi               -0.312241812124               -4.248267798737

 PW ALGORITHM --------------- ION=   1  ELEC=   9--------------------------------
  K-point    CG iter num      Time(Sec)
 Energy (eV) & Occupations  for spin=1 K-point=1
      1     -11.175023       2.000000
      2      -9.421868       2.000000
      3      -4.601897       1.999771
      4      -4.247600       1.000245
      5      -4.247542       0.999984
      6      -2.861402       0.000000
      7      -2.861346       0.000000
      8      -0.769529       0.000000
        1       2.000000       0.400000

 Density error is 0.000000157023
                          Error Threshold = 0.000000035053

       Energy                       Rydberg                            eV
   E_KohnSham              -15.261933045329             -207.649251910970
     E_Harris              -15.261932999643             -207.649251289374
       E_band               -4.328527280136              -58.892634958296
   E_one_elec              -17.745183115176             -241.435602419778
    E_Hartree               +9.344490585924             +127.138316875931
         E_xc               -4.077598384581              -55.478572185898
      E_Ewald               -2.772259690983              -37.718528133087
      E_demet               -0.011290185025               -0.153610847810
      E_descf               -0.000092255489               -0.001255200328
     E_efield               +0.000000000000               +0.000000000000
      E_Fermi               -0.312189581891               -4.247557169954

 PW ALGORITHM --------------- ION=   1  ELEC=  10--------------------------------
  K-point    CG iter num      Time(Sec)
 Energy (eV) & Occupations  for spin=1 K-point=1
      1     -11.174751       2.000000
      2      -9.421610       2.000000
      3      -4.601682       1.999770
      4      -4.247335       1.000359
      5      -4.247318       0.999872
      6      -2.861111       0.000000
      7      -2.861092       0.000000
      8      -0.769317       0.000000
        1       3.250000       0.560000

 Density error is 0.000000012288
                          Error Threshold = 0.000000001963

       Energy                       Rydberg                            eV
   E_KohnSham              -15.261933098766             -207.649252638019
     E_Harris              -15.261933071567             -207.649252267953
       E_band               -4.328381908815              -58.890657080005
   E_one_elec              -17.745097430775             -241.434436623701
    E_Hartree               +9.344212590637             +127.134534556002
         E_xc               -4.077498389433              -55.477211682111
      E_Ewald               -2.772259690983              -37.718528133087
      E_demet               -0.011290178212               -0.153610755122
      E_descf               +0.000000000000               +0.000000000000
     E_efield               +0.000000000000               +0.000000000000
      E_Fermi               -0.312171611499               -4.247312670228
 charge density convergence is achieved
 final etot is -207.649252638019 eV

 STATE ENERGY(eV) AND OCCUPATIONS. 1/1 kpoint (Cartesian) = 0.00000 0.00000 0.00000 (16877 pws)
 [spin1_state]        1     -11.174751       2.000000
 [spin1_state]        2      -9.421610       2.000000
 [spin1_state]        3      -4.601682       1.999770
 [spin1_state]        4      -4.247335       1.000184
 [spin1_state]        5      -4.247318       1.000046
 [spin1_state]        6      -2.861111       0.000000
 [spin1_state]        7      -2.861092       0.000000
 [spin1_state]        8      -0.769317       0.000000



 --------------------------------------------
 !FINAL_ETOT_IS -207.6492526380187371 eV
 --------------------------------------------



 ><><><><><><><><><><><><><><><><><><><><><><

 Overlap Data For Spillage Minimization

 ><><><><><><><><><><><><><><><><><><><><><><

 File name : INPUTs
                                   smooth = 1
                                    sigma = 0.1000000000000000
                                     ecut = 100.0000000000000000
                                     rcut = 6.0000000000000000
                                tolerence = 0.0000000000010000
                                    kmesh = 1005
                                       dk = 0.0100000000000000
                                    rmesh = 605
                                       dr = 0.0100000000000000
                       number of k points = 1
                          number of bands = 8
                 number of local orbitals = 18
           number of eigenvalues of Jl(x) = 19
 --------------------------------------------------------
 Print the overlap matrixs Q and S for this kpoint
       ik     npw
        1   16877
 --------------------------------------------------------
 OUTPUT THE OVERLAP BETWEEN SPHERICAL BESSEL FUNCTIONS AND BLOCH WAVE FUNCTIONS
 Q = < J_mu, q | Psi_n, k > 

    ik   Type1   Atom1       L
     1      Si       1       0
     1      Si       1       1
     1      Si       1       2
     1      Si       2       0
     1      Si       2       1
     1      Si       2       2
 DONE : jlq3d_overlap Time : 11.5577647686004639 (SEC)

 OUTPUT THE OVERLAP BETWEEN SPHERICAL BESSEL FUNCTIONS
 S = < J_mu,q1 | J_nu,q2 >

    ik   Type1   Atom1      L1   Type2   Atom2      L2
     1      Si       1       0      Si       1       0
     1      Si       1       0      Si       1       1
     1      Si       1       0      Si       1       2
     1      Si       1       1      Si       1       0
     1      Si       1       1      Si       1       1
     1      Si       1       1      Si       1       2
     1      Si       1       2      Si       1       0
     1      Si       1       2      Si       1       1
     1      Si       1       2      Si       1       2
     1      Si       1       0      Si       2       0
     1      Si       1       0      Si       2       1
     1      Si       1       0      Si       2       2
     1      Si       1       1      Si       2       0
     1      Si       1       1      Si       2       1
     1      Si       1       1      Si       2       2
     1      Si       1       2      Si       2       0
     1      Si       1       2      Si       2       1
     1      Si       1       2      Si       2       2
     1      Si       2       0      Si       1       0
     1      Si       2       0      Si       1       1
     1      Si       2       0      Si       1       2
     1      Si       2       1      Si       1       0
     1      Si       2       1      Si       1       1
     1      Si       2       1      Si       1       2
     1      Si       2       2      Si       1       0
     1      Si       2       2      Si       1       1
     1      Si       2       2      Si       1       2
     1      Si       2       0      Si       2       0
     1      Si       2       0      Si       2       1
     1      Si       2       0      Si       2       2
     1      Si       2       1      Si       2       0
     1      Si       2       1      Si       2       1
     1      Si       2       1      Si       2       2
     1      Si       2       2      Si       2       0
     1      Si       2       2      Si       2       1
     1      Si       2       2      Si       2       2
 DONE : Sq_overlap Time : 41.9416809082031250 (SEC)


 ik=0 DONE : BASIS OVERLAP (Q and S) GENERATION. Time : 42.0871307849884033 (SEC)





  |CLASS_NAME---------|NAME---------------|TIME(Sec)-----|CALLS----|AVG------|PER%-------
  A             DC_Driv         divide_frag          0.596         1      0.60      1.42%
  B            PW_Basis              gen_pw           0.60         1      0.60      1.42%
  A             DC_Driv         solve_eachf          41.45         1     41.45     98.47%
  B            Run_Frag        frag_pw_line          41.45         1     41.45     98.47%
  X                 FFT               FFT3D           6.31       967      0.01     15.00%
  E           potential            v_of_rho           1.96        11      0.18      4.67%
  C            wavefunc             wfcinit           0.20         1      0.20      0.47%
  G           Hamilt_PW            cinitcgg           1.55        11      0.14      3.67%
  H           Hamilt_PW               h_psi           5.83       372      0.02     13.85%
  I           Hamilt_PW          add_vuspsi           0.18       372      0.00      0.44%
  C                Ions         opt_ions_pw           9.53         1      9.53     22.64%
  D           electrons     self_consistent           9.53         1      9.53     22.64%
  E           electrons             c_bands           6.17        10      0.62     14.66%
  F              Hamilt               diago           6.11        10      0.61     14.51%
  G            Diago_CG                diag           4.72        10      0.47     11.22%
  E              Charge             mix_rho           0.45        10      0.05      1.08%
 ----------------------------------------------------------------------------------------

 CLASS_NAME---------|NAME---------------|MEMORY(MB)--------
                                         73.4309
         Charge_Pulay                Rrho        16.0000
         Charge_Pulay               dRrho        14.0000
         Charge_Pulay                drho        14.0000
              Use_FFT              porter         4.0000
             PW_Basis           struc_fac         2.0614
             wavefunc                 evc         2.0602
               Charge                 rho         2.0000
               Charge            rho_save         2.0000
               Charge            rho_core         2.0000
            potential               vltot         2.0000
            potential                  vr         2.0000
            potential                 vrs         2.0000
            potential                vrs1         2.0000
            potential                vnew         2.0000
         Charge_Pulay           rho_save2         2.0000
               Charge                rhog         1.0307
               Charge           rhog_save         1.0307
               Charge           rhog_core         1.0307
 ----------------------------------------------------------

 Start  Time  : Wed Oct  9 18:58:33 2019
 Finish Time  : Wed Oct  9 18:59:15 2019
 Total  Time  : 0 h 0 mins 42 secs 
