<PP_INFO>
Generated using unknown code
Author: X. Gonze et al    Generation date: 1990
Info:  Ge BHS modified for use as KB with l=2 as local part
    1        The Pseudo was generated with a Scalar-Relativistic Calculation
  0.00000000000E+00    Local Potential cutoff radius
nl pn  l   occ               Rcut            Rcut US             E pseu
4S  0  0  2.00      0.00000000000      0.00000000000      0.00000000000
4P  0  1  1.50      0.00000000000      0.00000000000      0.00000000000
</PP_INFO>


<PP_HEADER>
   0                   Version Number
  Ge                   Element
   NC                  Norm - Conserving pseudopotential
    F                  Nonlinear Core Correction
 SLA  PZ   NOGX NOGC   PZ   Exchange-Correlation functional
    4.00000000000      Z valence
    0.00000000000      Total energy
  0.0000000  0.0000000 Suggested cutoff for wfc and rho
    1                  Max angular momentum component
  291                  Number of points in mesh
    2    2             Number of Wavefunctions, Number of Projectors
 Wavefunctions         nl  l   occ
                       4S  0  2.00
                       4P  1  1.50
</PP_HEADER>


<PP_MESH>
  <PP_R>
  2.10560843721E-04  2.20252508738E-04  2.30390260355E-04  2.40994630983E-04
  2.52087098097E-04  2.63690127733E-04  2.75827219991E-04  2.88522956632E-04
  3.01803050861E-04  3.15694399406E-04  3.30225136995E-04  3.45424693339E-04
  3.61323852733E-04  3.77954816409E-04  3.95351267750E-04  4.13548440517E-04
  4.32583190202E-04  4.52494068680E-04  4.73321402283E-04  4.95107373479E-04
  5.17896106305E-04  5.41733755733E-04  5.66668601150E-04  5.92751144138E-04
  6.20034210762E-04  6.48573058553E-04  6.78425488433E-04  7.09651961773E-04
  7.42315722853E-04  7.76482926953E-04  8.12222774336E-04  8.49607650408E-04
  8.88713272318E-04  9.29618842316E-04  9.72407208158E-04  1.01716503091E-03
  1.06398296046E-03  1.11295581911E-03  1.16418279363E-03  1.21776763617E-03
  1.27381887432E-03  1.33245003102E-03  1.39377985438E-03  1.45793255826E-03
  1.52503807381E-03  1.59523231263E-03  1.66865744204E-03  1.74546217302E-03
  1.82580206139E-03  1.90983982289E-03  1.99774566271E-03  2.08969762021E-03
  2.18588192952E-03  2.28649339675E-03  2.39173579450E-03  2.50182227459E-03
  2.61697579976E-03  2.73742959525E-03  2.86342762117E-03  2.99522506658E-03
  3.13308886634E-03  3.27729824176E-03  3.42814526611E-03  3.58593545616E-03
  3.75098839098E-03  3.92363835916E-03  4.10423503589E-03  4.29314419115E-03
  4.49074843055E-03  4.69744797020E-03  4.91366144730E-03  5.13982676804E-03
  5.37640199447E-03  5.62386627228E-03  5.88272080121E-03  6.15348985013E-03
  6.43672181890E-03  6.73299034905E-03  7.04289548561E-03  7.36706489237E-03
  7.70615512318E-03  8.06085295162E-03  8.43187676202E-03  8.81997800439E-03
  9.22594271638E-03  9.65059311525E-03  1.00947892632E-02  1.05594308092E-02
  1.10454588112E-02  1.15538576420E-02  1.20856569830E-02  1.26419339095E-02
  1.32238150724E-02  1.38324789800E-02  1.44691583847E-02  1.51351427799E-02
  1.58317810114E-02  1.65604840099E-02  1.73227276480E-02  1.81200557294E-02
  1.89540831160E-02  1.98264989984E-02  2.07390703168E-02  2.16936453399E-02
  2.26921574086E-02  2.37366288508E-02  2.48291750782E-02  2.59720088704E-02
  2.71674448562E-02  2.84179042021E-02  2.97259195156E-02  3.10941399748E-02
  3.25253366935E-02  3.40224083343E-02  3.55883869789E-02  3.72264442691E-02
  3.89398978309E-02  4.07322179931E-02  4.26070348166E-02  4.45681454463E-02
  4.66195218013E-02  4.87653186198E-02  5.10098818736E-02  5.33577575704E-02
  5.58137009609E-02  5.83826861698E-02  6.10699162699E-02  6.38808338206E-02
  6.68211318905E-02  6.98967655881E-02  7.31139641227E-02  7.64792434207E-02
  7.99994193228E-02  8.36816213882E-02  8.75333073343E-02  9.15622781417E-02
  9.57766938529E-02  1.00185090100E-01  1.04796395392E-01  1.09619949198E-01
  1.14665520863E-01  1.19943329394E-01  1.25464064156E-01  1.31238906525E-01
  1.37279552529E-01  1.43598236541E-01  1.50207756055E-01  1.57121497608E-01
  1.64353463889E-01  1.71918302100E-01  1.79831333625E-01  1.88108585056E-01
  1.96766820657E-01  2.05823576313E-01  2.15297195049E-01  2.25206864182E-01
  2.35572654177E-01  2.46415559302E-01  2.57757540145E-01  2.69621568093E-01
  2.82031671857E-01  2.95012986139E-01  3.08591802537E-01  3.22795622793E-01
  3.37653214498E-01  3.53194669352E-01  3.69451464114E-01  3.86456524347E-01
  4.04244291111E-01  4.22850790711E-01  4.42313707668E-01  4.62672461040E-01
  4.83968284261E-01  5.06244308649E-01  5.29545650767E-01  5.53919503796E-01
  5.79415233117E-01  6.06084476296E-01  6.33981247664E-01  6.63162047716E-01
  6.93685977545E-01  7.25614858540E-01  7.59013357597E-01  7.93949118089E-01
  8.30492896871E-01  8.68718707583E-01  9.08703970556E-01  9.50529669611E-01
  9.94280516083E-01  1.04004512039E+00  1.08791617149E+00  1.13799062462E+00
  1.19036989767E+00  1.24516007656E+00  1.30247213013E+00  1.36242213487E+00
  1.42513151003E+00  1.49072726352E+00  1.55934224917E+00  1.63111543576E+00
  1.70619218854E+00  1.78472456357E+00  1.86687161575E+00  1.95279972095E+00
  2.04268291294E+00  2.13670323589E+00  2.23505111310E+00  2.33792573262E+00
  2.44553545072E+00  2.55809821385E+00  2.67584200007E+00  2.79900528079E+00
  2.92783750373E+00  3.06259959819E+00  3.20356450345E+00  3.35101772163E+00
  3.50525789587E+00  3.66659741524E+00  3.83536304741E+00  4.01189660046E+00
  4.19655561515E+00  4.38971408911E+00  4.59176323424E+00  4.80311226912E+00
  5.02418924777E+00  5.25544192662E+00  5.49733867138E+00  5.75036940561E+00
  6.01504660304E+00  6.29190632543E+00  6.58150930833E+00  6.88444209677E+00
  7.20131823315E+00  7.53277949994E+00  7.87949721948E+00  8.24217361365E+00
  8.62154322609E+00  9.01837440989E+00  9.43347088384E+00  9.86767336013E+00
  1.03218612472E+01  1.07969544307E+01  1.12939151366E+01  1.18137498804E+01
  1.23575115049E+01  1.29263013132E+01  1.35212712992E+01  1.41436264803E+01
  1.47946273386E+01  1.54755923731E+01  1.61879007709E+01  1.69329951998E+01
  1.77123847307E+01  1.85276478937E+01  1.93804358754E+01  2.02724758628E+01
  2.12055745419E+01  2.21816217562E+01  2.32025943349E+01  2.42705600965E+01
  2.53876820365E+01  2.65562227087E+01  2.77785488072E+01  2.90571359602E+01
  3.03945737435E+01  3.17935709257E+01  3.32569609543E+01  3.47877076941E+01
  3.63889114304E+01  3.80638151479E+01  3.98158110992E+01  4.16484476746E+01
  4.35654365896E+01  4.55706604018E+01  4.76681803747E+01  4.98622447031E+01
  5.21572971170E+01  5.45579858819E+01  5.70691732130E+01  5.96959451228E+01
  6.24436217220E+01  6.53177679948E+01  6.83242050696E+01  7.14690220090E+01
  7.47585881418E+01  7.81995659638E+01  8.17989246309E+01  8.55639540745E+01
  8.95022797658E+01  9.36218781604E+01  9.79310928528E+01
  </PP_R>
  <PP_RAB>
  9.47523796746E-06  9.91136289323E-06  1.03675617160E-05  1.08447583942E-05
  1.13439194144E-05  1.18660557480E-05  1.24122248996E-05  1.29835330485E-05
  1.35811372887E-05  1.42062479733E-05  1.48601311648E-05  1.55441112003E-05
  1.62595733730E-05  1.70079667384E-05  1.77908070488E-05  1.86096798233E-05
  1.94662435591E-05  2.03622330906E-05  2.12994631027E-05  2.22798318065E-05
  2.33053247837E-05  2.43780190080E-05  2.55000870518E-05  2.66738014862E-05
  2.79015394843E-05  2.91857876349E-05  3.05291469795E-05  3.19343382798E-05
  3.34042075284E-05  3.49417317129E-05  3.65500248451E-05  3.82323442684E-05
  3.99920972543E-05  4.18328479042E-05  4.37583243671E-05  4.57724263909E-05
  4.78792332205E-05  5.00830118597E-05  5.23882257134E-05  5.47995436274E-05
  5.73218493446E-05  5.99602513959E-05  6.27200934473E-05  6.56069651219E-05
  6.86267133216E-05  7.17854540683E-05  7.50895848917E-05  7.85457977857E-05
  8.21610927626E-05  8.59427920302E-05  8.98985548219E-05  9.40363929093E-05
  9.83646868284E-05  1.02892202854E-04  1.07628110752E-04  1.12582002356E-04
  1.17763910989E-04  1.23184331786E-04  1.28854242953E-04  1.34785127996E-04
  1.40988998985E-04  1.47478420879E-04  1.54266536975E-04  1.61367095527E-04
  1.68794477594E-04  1.76563726162E-04  1.84690576615E-04  1.93191488602E-04
  2.02083679375E-04  2.11385158659E-04  2.21114765129E-04  2.31292204562E-04
  2.41938089751E-04  2.53073982253E-04  2.64722436054E-04  2.76907043256E-04
  2.89652481851E-04  3.02984565707E-04  3.16930296852E-04  3.31517920157E-04
  3.46776980543E-04  3.62738382823E-04  3.79434454291E-04  3.96899010198E-04
  4.15167422237E-04  4.34276690186E-04  4.54265516844E-04  4.75174386414E-04
  4.97045646505E-04  5.19923593890E-04  5.43854564233E-04  5.68887025926E-04
  5.95071678259E-04  6.22461554102E-04  6.51112127313E-04  6.81081425093E-04
  7.12430145514E-04  7.45221780447E-04  7.79522744158E-04  8.15402507822E-04
  8.52933740221E-04  8.92192454927E-04  9.33258164254E-04  9.76214040297E-04
  1.02114708338E-03  1.06814829829E-03  1.11731287852E-03  1.16874039917E-03
  1.22253501853E-03  1.27880568910E-03  1.33766637820E-03  1.39923629886E-03
  1.46364015121E-03  1.53100837504E-03  1.60147741405E-03  1.67518999211E-03
  1.75229540239E-03  1.83294980969E-03  1.91731656675E-03  2.00556654508E-03
  2.09787848106E-03  2.19443933789E-03  2.29544468431E-03  2.40109909067E-03
  2.51161654324E-03  2.62722087764E-03  2.74814623214E-03  2.87463752193E-03
  3.00695093507E-03  3.14535445147E-03  3.29012838552E-03  3.44156595393E-03
  3.59997386953E-03  3.76567296247E-03  3.93899883005E-03  4.12030251638E-03
  4.30995122338E-03  4.50832905450E-03  4.71583779265E-03  4.93289771392E-03
  5.15994843884E-03  5.39744982272E-03  5.64588288702E-03  5.90575079361E-03
  6.17757986379E-03  6.46192064434E-03  6.75934902250E-03  7.07046739238E-03
  7.39590587500E-03  7.73632359452E-03  8.09241001313E-03  8.46488632754E-03
  8.85450692957E-03  9.26206093408E-03  9.68837377722E-03  1.01343088882E-02
  1.06007694380E-02  1.10887001686E-02  1.15990893065E-02  1.21329705642E-02
  1.26914252336E-02  1.32755843763E-02  1.38866311141E-02  1.45258030257E-02
  1.51943946524E-02  1.58937601209E-02  1.66253158851E-02  1.73905435956E-02
  1.81909931000E-02  1.90282855820E-02  1.99041168451E-02  2.08202607468E-02
  2.17785727917E-02  2.27809938892E-02  2.38295542845E-02  2.49263776708E-02
  2.60736854903E-02  2.72738014333E-02  2.85291561449E-02  2.98422921472E-02
  3.12158689895E-02  3.26526686343E-02  3.41556010919E-02  3.57277103140E-02
  3.73721803592E-02  3.90923418413E-02  4.08916786750E-02  4.27738351325E-02
  4.47426232238E-02  4.68020304174E-02  4.89562277169E-02  5.12095781080E-02
  5.35666453951E-02  5.60322034451E-02  5.86112458557E-02  6.13089960690E-02
  6.41309179512E-02  6.70827268585E-02  7.01704012126E-02  7.34001946094E-02
  7.67786484841E-02  8.03126053605E-02  8.40092227090E-02  8.78759874428E-02
  9.19207310822E-02  9.61516456152E-02  1.00577300090E-01  1.05206657968E-01
  1.10049095282E-01  1.15114419623E-01  1.20412890003E-01  1.25955237635E-01
  1.31752687668E-01  1.37816981919E-01  1.44160402655E-01  1.50795797473E-01
  1.57736605314E-01  1.64996883686E-01  1.72591337134E-01  1.80535347021E-01
  1.88845002682E-01  1.97537134010E-01  2.06629345541E-01  2.16140052110E-01
  2.26088516150E-01  2.36494886698E-01  2.47380240212E-01  2.58766623253E-01
  2.70677097137E-01  2.83135784644E-01  2.96167918875E-01  3.09799894354E-01
  3.24059320492E-01  3.38975077497E-01  3.54577374877E-01  3.70897812614E-01
  3.87969445174E-01  4.05826848445E-01  4.24506189773E-01  4.44045301206E-01
  4.64483756123E-01  4.85862949380E-01  5.08226181149E-01  5.31618744616E-01
  5.56088017718E-01  5.81683559095E-01  6.08457208464E-01  6.36463191616E-01
  6.65758230236E-01  6.96401656791E-01  7.28455534690E-01  7.61984783990E-01
  7.97057312880E-01  8.33744155217E-01  8.72119614393E-01  9.12261413828E-01
  9.54250854384E-01  9.98172979027E-01  1.04411674507E+00  1.09217520434E+00
  1.14244569164E+00  1.19503002189E+00  1.25003469632E+00  1.30757111821E+00
  1.36775581846E+00  1.43071069166E+00  1.49656324294E+00  1.56544684623E+00
  1.63750101437E+00  1.71287168166E+00  1.79171149946E+00  1.87418014536E+00
  1.96044464653E+00  2.05067971808E+00  2.14506811686E+00  2.24380101164E+00
  2.34707837027E+00  2.45510936469E+00  2.56811279459E+00  2.68631753052E+00
  2.80996297749E+00  2.93929955977E+00  3.07458922813E+00  3.21610599040E+00
  3.36413646638E+00  3.51898046837E+00  3.68095160839E+00  3.85037793335E+00
  4.02760258946E+00  4.21298451722E+00  4.40689917837E+00
  </PP_RAB>
</PP_MESH>


<PP_LOCAL>
 -3.52507266931E+00 -3.52507268404E+00 -3.52507270026E+00 -3.52507271794E+00
 -3.52507273721E+00 -3.52507275843E+00 -3.52507278159E+00 -3.52507280685E+00
 -3.52507283460E+00 -3.52507286497E+00 -3.52507289817E+00 -3.52507293444E+00
 -3.52507297421E+00 -3.52507301762E+00 -3.52507306519E+00 -3.52507311724E+00
 -3.52507317427E+00 -3.52507323654E+00 -3.52507330478E+00 -3.52507337940E+00
 -3.52507346098E+00 -3.52507355025E+00 -3.52507364805E+00 -3.52507375499E+00
 -3.52507387198E+00 -3.52507400009E+00 -3.52507414012E+00 -3.52507429340E+00
 -3.52507446106E+00 -3.52507464459E+00 -3.52507484545E+00 -3.52507506507E+00
 -3.52507530551E+00 -3.52507556854E+00 -3.52507585626E+00 -3.52507617121E+00
 -3.52507651576E+00 -3.52507689274E+00 -3.52507730531E+00 -3.52507775661E+00
 -3.52507825046E+00 -3.52507879089E+00 -3.52507938204E+00 -3.52508002896E+00
 -3.52508073686E+00 -3.52508151142E+00 -3.52508235887E+00 -3.52508328616E+00
 -3.52508430075E+00 -3.52508541088E+00 -3.52508662558E+00 -3.52508795466E+00
 -3.52508940884E+00 -3.52509100013E+00 -3.52509274117E+00 -3.52509464609E+00
 -3.52509673056E+00 -3.52509901120E+00 -3.52510150668E+00 -3.52510423724E+00
 -3.52510722477E+00 -3.52511049380E+00 -3.52511407051E+00 -3.52511798415E+00
 -3.52512226642E+00 -3.52512695184E+00 -3.52513207849E+00 -3.52513768791E+00
 -3.52514382566E+00 -3.52515054123E+00 -3.52515788932E+00 -3.52516592936E+00
 -3.52517472651E+00 -3.52518435209E+00 -3.52519488394E+00 -3.52520640768E+00
 -3.52521901641E+00 -3.52523281246E+00 -3.52524790767E+00 -3.52526442426E+00
 -3.52528249596E+00 -3.52530226929E+00 -3.52532390444E+00 -3.52534757671E+00
 -3.52537347785E+00 -3.52540181758E+00 -3.52543282545E+00 -3.52546675278E+00
 -3.52550387406E+00 -3.52554449021E+00 -3.52558892980E+00 -3.52563755285E+00
 -3.52569075298E+00 -3.52574896074E+00 -3.52581264731E+00 -3.52588232809E+00
 -3.52595856686E+00 -3.52604198051E+00 -3.52613324362E+00 -3.52623309427E+00
 -3.52634233984E+00 -3.52646186330E+00 -3.52659263080E+00 -3.52673569874E+00
 -3.52689222250E+00 -3.52706346602E+00 -3.52725081137E+00 -3.52745577007E+00
 -3.52767999496E+00 -3.52792529317E+00 -3.52819364119E+00 -3.52848719950E+00
 -3.52880833013E+00 -3.52915961530E+00 -3.52954387769E+00 -3.52996420204E+00
 -3.53042395983E+00 -3.53092683509E+00 -3.53147685303E+00 -3.53207841092E+00
 -3.53273631175E+00 -3.53345580111E+00 -3.53424260646E+00 -3.53510298063E+00
 -3.53604374808E+00 -3.53707235590E+00 -3.53819692816E+00 -3.53942632481E+00
 -3.54077020565E+00 -3.54223909897E+00 -3.54384447471E+00 -3.54559882422E+00
 -3.54751574488E+00 -3.54961003019E+00 -3.55189776683E+00 -3.55439643659E+00
 -3.55712502531E+00 -3.56010413659E+00 -3.56335611246E+00 -3.56690515773E+00
 -3.57077747049E+00 -3.57500137514E+00 -3.57960745875E+00 -3.58462870833E+00
 -3.59010064725E+00 -3.59606146784E+00 -3.60255215920E+00 -3.60961662337E+00
 -3.61730177845E+00 -3.62565764068E+00 -3.63473738097E+00 -3.64459734854E+00
 -3.65529705021E+00 -3.66689907914E+00 -3.67946897899E+00 -3.69307503122E+00
 -3.70778795218E+00 -3.72368048351E+00 -3.74082686122E+00 -3.75930214460E+00
 -3.77918139039E+00 -3.80053865606E+00 -3.82344581881E+00 -3.84797120272E+00
 -3.87417801059E+00 -3.90212256760E+00 -3.93185239526E+00 -3.96340415052E+00
 -3.99680148393E+00 -4.03205289399E+00 -4.06914968324E+00 -4.10806414692E+00
 -4.14874815500E+00 -4.19113230871E+00 -4.23512586070E+00 -4.28061757740E+00
 -4.32747767090E+00 -4.37556082975E+00 -4.42471020511E+00 -4.47476194939E+00
 -4.52554953497E+00 -4.57690659599E+00 -4.62866645559E+00 -4.68065585915E+00
 -4.73267984324E+00 -4.78449429158E+00 -4.83576282235E+00 -4.88599555933E+00
 -4.93446946342E+00 -4.98013362653E+00 -5.02150848779E+00 -5.05659516463E+00
 -5.08281918427E+00 -5.09704008267E+00 -5.09566173575E+00 -5.07487410703E+00
 -5.03104141410E+00 -4.96122203962E+00 -4.86376304707E+00 -4.73886420336E+00
 -4.58896757489E+00 -4.41881927969E+00 -4.23508949564E+00 -4.04553383119E+00
 -3.85781936947E+00 -3.67827934970E+00 -3.51093886320E+00 -3.35711380117E+00
 -3.21571291410E+00 -3.08412218435E+00 -2.95933253675E+00 -2.83889933936E+00
 -2.72143852378E+00 -2.60660488014E+00 -2.49472523488E+00 -2.38635317414E+00
 -2.28195056337E+00 -2.18176128412E+00 -2.08582783182E+00 -1.99406436993E+00
 -1.90632444396E+00 -1.82244204873E+00 -1.74225010056E+00 -1.66558671751E+00
 -1.59229670813E+00 -1.52223164327E+00 -1.45524961772E+00 -1.39121496998E+00
 -1.32999800799E+00 -1.27147474648E+00 -1.21552665585E+00 -1.16204042209E+00
 -1.11090771731E+00 -1.06202498030E+00 -1.01529320681E+00 -9.70617749030E-01
 -9.27908123895E-01 -8.87077829816E-01 -8.48044171494E-01 -8.10728092432E-01
 -7.75054014816E-01 -7.40949686449E-01 -7.08346034410E-01 -6.77177025163E-01
 -6.47379530811E-01 -6.18893201245E-01 -5.91660341914E-01 -5.65625796970E-01
 -5.40736837564E-01 -5.16943055045E-01 -4.94196258874E-01 -4.72450379015E-01
 -4.51661372630E-01 -4.31787134875E-01 -4.12787413629E-01 -3.94623727961E-01
 -3.77259290203E-01 -3.60658931432E-01 -3.44789030249E-01 -3.29617444682E-01
 -3.15113447084E-01 -3.01247661904E-01 -2.87992006189E-01 -2.75319632705E-01
 -2.63204875565E-01 -2.51623198246E-01 -2.40551143894E-01 -2.29966287815E-01
 -2.19847192057E-01 -2.10173361995E-01 -2.00925204816E-01 -1.92083989841E-01
 -1.83631810588E-01 -1.75551548507E-01 -1.67826838304E-01 -1.60442034803E-01
 -1.53382181252E-01 -1.46632979035E-01 -1.40180758711E-01 -1.34012452329E-01
 -1.28115566961E-01 -1.22478159398E-01 -1.17088811964E-01 -1.11936609389E-01
 -1.07011116700E-01 -1.02302358094E-01 -9.78007967232E-02 -9.34973153887E-02
 -8.93831980697E-02 -8.54501122728E-02 -8.16900921552E-02
</PP_LOCAL>


<PP_NONLOCAL>
  <PP_BETA>
    1    0             Beta    L
   241
  1.42467696663E-04  1.49025181332E-04  1.55884491275E-04  1.63059519738E-04
  1.70564800928E-04  1.78415534235E-04  1.86627617455E-04  1.95217687632E-04
  2.04203137705E-04  2.13602179463E-04  2.23433821356E-04  2.33717998244E-04
  2.44475552662E-04  2.55728235001E-04  2.67498851748E-04  2.79811265349E-04
  2.92690375732E-04  3.06162287103E-04  3.20254270812E-04  3.34994895119E-04
  3.50413987976E-04  3.66542804042E-04  3.83413987528E-04  4.01061701462E-04
  4.19521721124E-04  4.38831414755E-04  4.59029873796E-04  4.80158042153E-04
  5.02258679496E-04  5.25376583247E-04  5.49558533372E-04  5.74853551381E-04
  6.01312826329E-04  6.28989974239E-04  6.57941038253E-04  6.88224655150E-04
  7.19902166117E-04  7.53037729124E-04  7.87698447138E-04  8.23954517112E-04
  8.61879378179E-04  9.01549841128E-04  9.43046255141E-04  9.86452674706E-04
  1.03185698880E-03  1.07935116241E-03  1.12903138440E-03  1.18099828879E-03
  1.23535712352E-03  1.29221798941E-03  1.35169602650E-03  1.41391170945E-03
  1.47899107024E-03  1.54706588374E-03  1.61827403820E-03  1.69275975525E-03
  1.77067389017E-03  1.85217424285E-03  1.93742593017E-03  2.02660147820E-03
  2.11988169163E-03  2.21745534074E-03  2.31952008432E-03  2.42628284324E-03
  2.53795942610E-03  2.65477638416E-03  2.77697026834E-03  2.90478836985E-03
  3.03848964514E-03  3.17834508734E-03  3.32463772325E-03  3.47766372506E-03
  3.63773352024E-03  3.80517086402E-03  3.98031506065E-03  4.16352077549E-03
  4.35515914567E-03  4.55561833376E-03  4.76530426386E-03  4.98464173074E-03
  5.21407495144E-03  5.45406849161E-03  5.70510854827E-03  5.96770369525E-03
  6.24238560995E-03  6.52971073952E-03  6.83026102519E-03  7.14464519880E-03
  7.47350006343E-03  7.81749196040E-03  8.17731731748E-03  8.55370503375E-03
  8.94741757738E-03  9.35925243646E-03  9.79004377771E-03  1.02406642518E-02
  1.07120268282E-02  1.12050860458E-02  1.17208407495E-02  1.22603358987E-02
  1.28246643597E-02  1.34149692553E-02  1.40324466552E-02  1.46783471786E-02
  1.53539799662E-02  1.60607134925E-02  1.67999797045E-02  1.75732766612E-02
  1.83821713342E-02  1.92283027402E-02  2.01133856462E-02  2.10392149348E-02
  2.20076644079E-02  2.30206997981E-02  2.40803728768E-02  2.51888321209E-02
  2.63483259772E-02  2.75612060089E-02  2.88299300102E-02  3.01570724096E-02
  3.15453271848E-02  3.29975088235E-02  3.45165661264E-02  3.61055828601E-02
  3.77677857453E-02  3.95065503303E-02  4.13254122904E-02  4.32280673153E-02
  4.52183874921E-02  4.73004206857E-02  4.94784080935E-02  5.17567904403E-02
  5.41402117895E-02  5.66335378307E-02  5.92418680094E-02  6.19705380451E-02
  6.48251419907E-02  6.78115389575E-02  7.09358720149E-02  7.42045826315E-02
  7.76244260437E-02  8.12024931344E-02  8.49462255479E-02  8.88634392001E-02
  9.29623480691E-02  9.72515923334E-02  1.01740261263E-01  1.06437929092E-01
  1.11354681684E-01  1.16501164619E-01  1.21888615965E-01  1.27528906605E-01
  1.33434598430E-01  1.39618984507E-01  1.46096145952E-01  1.52880999768E-01
  1.59989356131E-01  1.67437960793E-01  1.75244535150E-01  1.83427782083E-01
  1.92007421689E-01  2.01004084891E-01  2.10439259175E-01  2.20335090595E-01
  2.30714094239E-01  2.41598755859E-01  2.53010853779E-01  2.64970645289E-01
  2.77495657265E-01  2.90599135605E-01  3.04288076454E-01  3.18560565039E-01
  3.33402576902E-01  3.48784153474E-01  3.64654472494E-01  3.80936487030E-01
  3.97520319897E-01  4.14256022344E-01  4.30945454922E-01  4.47333215818E-01
  4.63096764223E-01  4.77835641224E-01  4.91059369491E-01  5.02174157595E-01
  5.10467995176E-01  5.15095091065E-01  5.15061531344E-01  5.09216988762E-01
  4.96261665055E-01  4.74783109225E-01  4.43343883775E-01  4.00643857999E-01
  3.45777640152E-01  2.78589914142E-01  2.00095909994E-01  1.12880612407E-01
  2.13316854647E-02 -6.84732152472E-02 -1.49373644414E-01 -2.14249979308E-01
 -2.57472058092E-01 -2.76261213921E-01 -2.71459598256E-01 -2.47342813384E-01
 -2.10478010641E-01 -1.68044364301E-01 -1.26251022181E-01 -8.93727873577E-02
 -5.95630253450E-02 -3.72421776967E-02 -2.17074970744E-02 -1.16891570462E-02
 -5.75135357916E-03 -2.55415982332E-03 -1.01070648092E-03 -3.51712093302E-04
 -1.06202118319E-04 -2.74489947962E-05 -5.98696492474E-06 -1.08563810022E-06
 -1.61079672832E-07 -1.92232230971E-08 -1.81126410703E-09 -1.32055764411E-10
 -7.28845870418E-12 -2.97347965238E-13 -8.73054354411E-15 -1.79786354693E-16
  0.00000000000E+00  0.00000000000E+00  0.00000000000E+00  0.00000000000E+00
  0.00000000000E+00  0.00000000000E+00  0.00000000000E+00  0.00000000000E+00
  0.00000000000E+00  0.00000000000E+00  0.00000000000E+00  0.00000000000E+00
  0.00000000000E+00
  </PP_BETA>
  <PP_BETA>
    2    1             Beta    L
   241
  1.18741652264E-08  1.29924060918E-08  1.42159562983E-08  1.55547337958E-08
  1.70195893631E-08  1.86223969118E-08  2.03761473897E-08  2.22950562503E-08
  2.43946772361E-08  2.66920278878E-08  2.92057295193E-08  3.19561571177E-08
  3.49656046039E-08  3.82584645135E-08  4.18614257856E-08  4.58036940741E-08
  5.01172220341E-08  5.48369738850E-08  6.00012035735E-08  6.56517698857E-08
  7.18344741957E-08  7.85994298016E-08  8.60014682754E-08  9.41005882283E-08
  1.02962433041E-07  1.12658835367E-07  1.23268394099E-07  1.34877085788E-07
  1.47579023071E-07  1.61477150042E-07  1.76684118101E-07  1.93323188911E-07
  2.11529218788E-07  2.31449787219E-07  2.53246352786E-07  2.77095589599E-07
  3.03190786691E-07  3.31743473509E-07  3.62985063233E-07  3.97168784902E-07
  4.34571715267E-07  4.75496999781E-07  5.20276362566E-07  5.69272743255E-07
  6.22883267109E-07  6.81542459302E-07  7.45725766074E-07  8.15953391912E-07
  8.92794542533E-07  9.76872020349E-07  1.06886731604E-06  1.16952588952E-06
  1.27966382324E-06  1.40017358154E-06  1.53203195329E-06  1.67630754459E-06
  1.83416971471E-06  2.00689796111E-06  2.19589202937E-06  2.40268373441E-06
  2.62894887157E-06  2.87652120542E-06  3.14740717364E-06  3.44380185951E-06
  3.76810739351E-06  4.12295180548E-06  4.51121058401E-06  4.93602985219E-06
  5.40085215939E-06  5.90944388731E-06  6.46592608692E-06  7.07480746202E-06
  7.74102150266E-06  8.46996576811E-06  9.26754602675E-06  1.01402233632E-05
  1.10950665723E-05  1.21398114963E-05  1.32829195891E-05  1.45336498945E-05
  1.59021309784E-05  1.73994454415E-05  1.90377179631E-05  2.08302122944E-05
  2.27914416856E-05  2.49372809950E-05  2.72850994208E-05  2.98538966616E-05
  3.26644605119E-05  3.57395269594E-05  3.91039733055E-05  4.27850064884E-05
  4.68123924225E-05  5.12186884566E-05  5.60395040963E-05  6.13137916436E-05
  6.70841521927E-05  7.33971784705E-05  8.03038297457E-05  8.78598296184E-05
  9.61261169817E-05  1.05169337178E-04  1.15062344135E-04  1.25884803893E-04
  1.37723817000E-04  1.50674586075E-04  1.64841195118E-04  1.80337400552E-04
  1.97287522740E-04  2.15827418488E-04  2.36105523961E-04  2.58284010317E-04
  2.82540023229E-04  3.09067047863E-04  3.38076332781E-04  3.69798539346E-04
  4.04485440993E-04  4.42411791668E-04  4.83877347660E-04  5.29209096887E-04
  5.78763550860E-04  6.32929374859E-04  6.92130045135E-04  7.56826885232E-04
  8.27522155234E-04  9.04762485777E-04  9.89142537770E-04  1.08130874889E-03
  1.18196355836E-03  1.29186955515E-03  1.41185445156E-03  1.54281556544E-03
  1.68572498715E-03  1.84163499061E-03  2.01168315379E-03  2.19709858245E-03
  2.39920725444E-03  2.61943775818E-03  2.85932770565E-03  3.12052930775E-03
  3.40481489338E-03  3.71408292261E-03  4.05036311619E-03  4.41582113798E-03
  4.81276350063E-03  5.24364100976E-03  5.71105202138E-03  6.21774518933E-03
  6.76662118599E-03  7.36073339780E-03  8.00328893036E-03  8.69764861330E-03
  9.44732516253E-03  1.02559879436E-02  1.11274587010E-02  1.20657186960E-02
  1.30749118685E-02  1.41593560676E-02  1.53235539938E-02  1.65722127781E-02
  1.79102677871E-02  1.93429077844E-02  2.08756059129E-02  2.25141402870E-02
  2.42646061379E-02  2.61333955944E-02  2.81271303283E-02  3.02525169055E-02
  3.25160791232E-02  3.49237330082E-02  3.74801303394E-02  4.01877252007E-02
  4.30454896483E-02  4.60472507608E-02  4.91796233723E-02  5.24195989537E-02
  5.57319238217E-02  5.90665053679E-02  6.23562853331E-02  6.55160084423E-02
  6.84425904899E-02  7.10175844288E-02  7.31121768709E-02  7.45945258263E-02
  7.53385557320E-02  7.52323539398E-02  7.41831152795E-02  7.21152908273E-02
  6.89589721625E-02  6.46280372181E-02  5.89922521316E-02  5.18536764434E-02
  4.29438383626E-02  3.19601673809E-02  1.86541411635E-02  2.96660638008E-03
 -1.48200798555E-02 -3.39685125066E-02 -5.32752390323E-02 -7.12036437168E-02
 -8.61475838021E-02 -9.67484191092E-02 -1.02153373792E-01 -1.02128687002E-01
 -9.70188880565E-02 -8.76210743106E-02 -7.50600534211E-02 -6.06938631801E-02
 -4.60045735479E-02 -3.24144172973E-02 -2.10356919695E-02 -1.24532888952E-02
 -6.65987387742E-03 -3.18550103512E-03 -1.34890115125E-03 -5.00320392770E-04
 -1.60727609717E-04 -4.41844253263E-05 -1.02595191112E-05 -1.98390371170E-06
 -3.14601336486E-07 -4.02304475855E-08 -4.07336350585E-09 -3.20102885034E-10
 -1.91037722948E-11 -8.45589876526E-13 -2.70317628370E-14 -6.08313843742E-16
  0.00000000000E+00  0.00000000000E+00  0.00000000000E+00  0.00000000000E+00
  0.00000000000E+00  0.00000000000E+00  0.00000000000E+00  0.00000000000E+00
  0.00000000000E+00  0.00000000000E+00  0.00000000000E+00  0.00000000000E+00
  0.00000000000E+00
  </PP_BETA>
  <PP_DIJ>
    2                  Number of nonzero Dij
    1    1  4.45849915611E+01
    2    2 -2.26924252259E+01
  </PP_DIJ>
</PP_NONLOCAL>


<PP_PSWFC>
4S    0  2.00          Wavefunction
  7.68982540000E-05  8.04377170000E-05  8.41400930000E-05  8.80128810000E-05
  9.20639260000E-05  9.63014320000E-05  1.00733980000E-04  1.05370550000E-04
  1.10220530000E-04  1.15293750000E-04  1.20600470000E-04  1.26151450000E-04
  1.31957940000E-04  1.38031680000E-04  1.44384980000E-04  1.51030720000E-04
  1.57982340000E-04  1.65253930000E-04  1.72860210000E-04  1.80816600000E-04
  1.89139200000E-04  1.97844880000E-04  2.06951260000E-04  2.16476780000E-04
  2.26440750000E-04  2.36863340000E-04  2.47765650000E-04  2.59169780000E-04
  2.71098810000E-04  2.83576920000E-04  2.96629360000E-04  3.10282590000E-04
  3.24564240000E-04  3.39503250000E-04  3.55129870000E-04  3.71475750000E-04
  3.88574000000E-04  4.06459250000E-04  4.25167720000E-04  4.44737300000E-04
  4.65207630000E-04  4.86620170000E-04  5.09018290000E-04  5.32447360000E-04
  5.56954820000E-04  5.82590310000E-04  6.09405750000E-04  6.37455460000E-04
  6.66796250000E-04  6.97487550000E-04  7.29591510000E-04  7.63173160000E-04
  7.98300530000E-04  8.35044750000E-04  8.73480250000E-04  9.13684880000E-04
  9.55740070000E-04  9.99731000000E-04  1.04574680000E-03  1.09388060000E-03
  1.14423000000E-03  1.19689690000E-03  1.25198800000E-03  1.30961500000E-03
  1.36989440000E-03  1.43294850000E-03  1.49890500000E-03  1.56789740000E-03
  1.64006550000E-03  1.71555560000E-03  1.79452050000E-03  1.87712010000E-03
  1.96352200000E-03  2.05390100000E-03  2.14844030000E-03  2.24733140000E-03
  2.35077470000E-03  2.45897980000E-03  2.57216590000E-03  2.69056240000E-03
  2.81440920000E-03  2.94395720000E-03  3.07946900000E-03  3.22121930000E-03
  3.36949530000E-03  3.52459760000E-03  3.68684060000E-03  3.85655320000E-03
  4.03407950000E-03  4.21977960000E-03  4.41402990000E-03  4.61722440000E-03
  4.82977530000E-03  5.05211380000E-03  5.28469100000E-03  5.52797890000E-03
  5.78247140000E-03  6.04868500000E-03  6.32716030000E-03  6.61846300000E-03
  6.92318490000E-03  7.24194520000E-03  7.57539200000E-03  7.92420320000E-03
  8.28908870000E-03  8.67079090000E-03  9.07008700000E-03  9.48779050000E-03
  9.92475280000E-03  1.03818650000E-02  1.08600600000E-02  1.13603150000E-02
  1.18836510000E-02  1.24311400000E-02  1.30039020000E-02  1.36031110000E-02
  1.42299970000E-02  1.48858480000E-02  1.55720120000E-02  1.62899030000E-02