<PP_INFO>
Generated using ld1 code (maybe, or maybe not)                                  
Author: unknown    Generation date: as well                                     
Info: automatically converted from PWSCF format                                 
    0        The Pseudo was generated with a Non-Relativistic Calculation
nl pn  l   occ               Rcut            Rcut US             E pseu
*S  0  0  2.00      0.00000000000      0.00000000000      0.00000000000
*P  0  1  0.00      0.00000000000      0.00000000000      0.00000000000
</PP_INFO>


<PP_HEADER>
   0                   Version Number
  Be                   Element
   NC                  Norm - Conserving pseudopotential
    F                  Nonlinear Core Correction
SLA  PZ   NOGX NOGC    PZ   Exchange-Correlation functional
    2.00000000000      Z valence
    0.00000000000      Total energy
  0.0000000  0.0000000 Suggested cutoff for wfc and rho
    1                  Max angular momentum component
 1112                  Number of points in mesh
    2    1             Number of Wavefunctions, Number of Projectors
 Wavefunctions         nl  l   occ
                       *S  0  2.00
                       *P  1  0.00
</PP_HEADER>


<PP_MESH>
  <PP_R>
  6.29960607617E-05  6.38203558609E-05  6.46554367522E-05  6.55014445662E-05
  6.63585222803E-05  6.72268147425E-05  6.81064686964E-05  6.89976328057E-05
  6.99004576791E-05  7.08150958962E-05  7.17417020331E-05  7.26804326883E-05
  7.36314465097E-05  7.45949042208E-05  7.55709686482E-05  7.65598047493E-05
  7.75615796395E-05  7.85764626213E-05  7.96046252123E-05  8.06462411744E-05
  8.17014865433E-05  8.27705396578E-05  8.38535811905E-05  8.49507941780E-05
  8.60623640520E-05  8.71884786702E-05  8.83293283489E-05  8.94851058944E-05
  9.06560066357E-05  9.18422284579E-05  9.30439718353E-05  9.42614398654E-05
  9.54948383032E-05  9.67443755959E-05  9.80102629184E-05  9.92927142086E-05
  1.00591946204E-04  1.01908178477E-04  1.03241633476E-04  1.04592536556E-04
  1.05961116023E-04  1.07347603172E-04  1.08752232321E-04  1.10175240856E-04
  1.11616869269E-04  1.13077361198E-04  1.14556963471E-04  1.16055926143E-04
  1.17574502543E-04  1.19112949313E-04  1.20671526456E-04  1.22250497374E-04
  1.23850128917E-04  1.25470691426E-04  1.27112458781E-04  1.28775708444E-04
  1.30460721508E-04  1.32167782745E-04  1.33897180651E-04  1.35649207500E-04
  1.37424159387E-04  1.39222336285E-04  1.41044042089E-04  1.42889584671E-04
  1.44759275934E-04  1.46653431859E-04  1.48572372562E-04  1.50516422351E-04
  1.52485909773E-04  1.54481167676E-04  1.56502533265E-04  1.58550348154E-04
  1.60624958429E-04  1.62726714705E-04  1.64855972183E-04  1.67013090712E-04
  1.69198434852E-04  1.71412373929E-04  1.73655282106E-04  1.75927538439E-04
  1.78229526944E-04  1.80561636664E-04  1.82924261730E-04  1.85317801431E-04
  1.87742660283E-04  1.90199248090E-04  1.92687980023E-04  1.95209276684E-04
  1.97763564177E-04  2.00351274182E-04  2.02972844030E-04  2.05628716772E-04
  2.08319341257E-04  2.11045172205E-04  2.13806670291E-04  2.16604302212E-04
  2.19438540776E-04  2.22309864976E-04  2.25218760072E-04  2.28165717674E-04
  2.31151235826E-04  2.34175819087E-04  2.37239978618E-04  2.40344232271E-04
  2.43489104671E-04  2.46675127309E-04  2.49902838631E-04  2.53172784127E-04
  2.56485516427E-04  2.59841595389E-04  2.63241588199E-04  2.66686069464E-04
  2.70175621310E-04  2.73710833479E-04  2.77292303430E-04  2.80920636440E-04
  2.84596445706E-04  2.88320352450E-04  2.92092986019E-04  2.95914983997E-04
  2.99786992313E-04  3.03709665343E-04  3.07683666030E-04  3.11709665989E-04
  3.15788345623E-04  3.19920394240E-04  3.24106510164E-04  3.28347400860E-04
  3.32643783048E-04  3.36996382827E-04  3.41405935797E-04  3.45873187183E-04
  3.50398891961E-04  3.54983814985E-04  3.59628731119E-04  3.64334425364E-04
  3.69101692995E-04  3.73931339690E-04  3.78824181672E-04  3.83781045841E-04
  3.88802769921E-04  3.93890202595E-04  3.99044203650E-04  4.04265644126E-04
  4.09555406457E-04  4.14914384627E-04  4.20343484316E-04  4.25843623054E-04
  4.31415730377E-04  4.37060747986E-04  4.42779629902E-04  4.48573342629E-04
  4.54442865318E-04  4.60389189933E-04  4.66413321418E-04  4.72516277863E-04
  4.78699090684E-04  4.84962804791E-04  4.91308478766E-04  4.97737185044E-04
  5.04250010090E-04  5.10848054588E-04  5.17532433624E-04  5.24304276872E-04
  5.31164728791E-04  5.38114948813E-04  5.45156111543E-04  5.52289406953E-04
  5.59516040587E-04  5.66837233764E-04  5.74254223782E-04  5.81768264131E-04
  5.89380624702E-04  5.97092592000E-04  6.04905469368E-04  6.12820577200E-04
  6.20839253168E-04  6.28962852448E-04  6.37192747946E-04  6.45530330536E-04
  6.53977009287E-04  6.62534211710E-04  6.71203383992E-04  6.79985991243E-04
  6.88883517745E-04  6.97897467201E-04  7.07029362990E-04  7.16280748424E-04
  7.25653187010E-04  7.35148262711E-04  7.44767580218E-04  7.54512765219E-04
  7.64385464673E-04  7.74387347090E-04  7.84520102812E-04  7.94785444299E-04
  8.05185106417E-04  8.15720846734E-04  8.26394445816E-04  8.37207707527E-04
  8.48162459332E-04  8.59260552612E-04  8.70503862971E-04  8.81894290554E-04
  8.93433760371E-04  9.05124222621E-04  9.16967653018E-04  9.28966053131E-04
  9.41121450718E-04  9.53435900070E-04  9.65911482358E-04  9.78550305986E-04
  9.91354506945E-04  1.00432624917E-03  1.01746772493E-03  1.03078115515E-03
  1.04426878985E-03  1.05793290845E-03  1.07177582023E-03  1.08579986468E-03
  1.10000741189E-03  1.11440086297E-03  1.12898265045E-03  1.14375523868E-03
  1.15872112427E-03  1.17388283649E-03  1.18924293770E-03  1.20480402380E-03
  1.22056872464E-03  1.23653970451E-03  1.25271966253E-03  1.26911133315E-03
  1.28571748661E-03  1.30254092938E-03  1.31958450467E-03  1.33685109289E-03
  1.35434361212E-03  1.37206501864E-03  1.39001830742E-03  1.40820651260E-03
  1.42663270803E-03  1.44530000779E-03  1.46421156669E-03  1.48337058082E-03
  1.50278028812E-03  1.52244396886E-03  1.54236494626E-03  1.56254658700E-03
  1.58299230183E-03  1.60370554613E-03  1.62468982049E-03  1.64594867129E-03
  1.66748569133E-03  1.68930452043E-03  1.71140884601E-03  1.73380240376E-03
  1.75648897824E-03  1.77947240354E-03  1.80275656391E-03  1.82634539443E-03
  1.85024288167E-03  1.87445306436E-03  1.89898003408E-03  1.92382793594E-03
  1.94900096931E-03  1.97450338848E-03  2.00033950342E-03  2.02651368049E-03
  2.05303034321E-03  2.07989397293E-03  2.10710910969E-03  2.13468035290E-03
  2.16261236218E-03  2.19090985809E-03  2.21957762298E-03  2.24862050177E-03
  2.27804340278E-03  2.30785129854E-03  2.33804922667E-03  2.36864229068E-03
  2.39963566088E-03  2.43103457521E-03  2.46284434018E-03  2.49507033169E-03
  2.52771799604E-03  2.56079285074E-03  2.59430048553E-03  2.62824656327E-03
  2.66263682094E-03  2.69747707057E-03  2.73277320025E-03  2.76853117510E-03
  2.80475703830E-03  2.84145691213E-03  2.87863699893E-03  2.91630358224E-03
  2.95446302779E-03  2.99312178463E-03  3.03228638617E-03  3.07196345133E-03
  3.11215968563E-03  3.15288188232E-03  3.19413692355E-03  3.23593178152E-03
  3.27827351967E-03  3.32116929384E-03  3.36462635353E-03  3.40865204308E-03
  3.45325380294E-03  3.49843917091E-03  3.54421578343E-03  3.59059137685E-03
  3.63757378876E-03  3.68517095930E-03  3.73339093250E-03  3.78224185765E-03
  3.83173199068E-03  3.88186969554E-03  3.93266344562E-03  3.98412182517E-03
  4.03625353080E-03  4.08906737288E-03  4.14257227708E-03  4.19677728585E-03
  4.25169155998E-03  4.30732438010E-03  4.36368514828E-03  4.42078338965E-03
  4.47862875393E-03  4.53723101713E-03  4.59660008317E-03  4.65674598556E-03
  4.71767888911E-03  4.77940909162E-03  4.84194702564E-03  4.90530326024E-03
  4.96948850276E-03  5.03451360066E-03  5.10038954335E-03  5.16712746401E-03
  5.23473864150E-03  5.30323450229E-03  5.37262662233E-03  5.44292672906E-03
  5.51414670336E-03  5.58629858157E-03  5.65939455755E-03  5.73344698467E-03
  5.80846837798E-03  5.88447141627E-03  5.96146894423E-03  6.03947397464E-03
  6.11849969052E-03  6.19855944741E-03  6.27966677560E-03  6.36183538242E-03
  6.44507915457E-03  6.52941216043E-03  6.61484865248E-03  6.70140306971E-03
  6.78909004000E-03  6.87792438267E-03  6.96792111092E-03  7.05909543443E-03
  7.15146276187E-03  7.24503870354E-03  7.33983907400E-03  7.43587989472E-03
  7.53317739685E-03  7.63174802388E-03  7.73160843450E-03  7.83277550534E-03
  7.93526633389E-03  8.03909824133E-03  8.14428877551E-03  8.25085571388E-03
  8.35881706650E-03  8.46819107910E-03  8.57899623615E-03  8.69125126398E-03
  8.80497513396E-03  8.92018706569E-03  9.03690653027E-03  9.15515325356E-03
  9.27494721955E-03  9.39630867368E-03  9.51925812635E-03  9.64381635630E-03
  9.77000441416E-03  9.89784362602E-03  1.00273555970E-02  1.01585622150E-02
  1.02914856541E-02  1.04261483788E-02  1.05625731475E-02  1.07007830161E-02
  1.08408013425E-02  1.09826517901E-02  1.11263583321E-02  1.12719452550E-02
  1.14194371636E-02  1.15688589842E-02  1.17202359695E-02  1.18735937026E-02
  1.20289581013E-02  1.21863554225E-02  1.23458122668E-02  1.25073555828E-02
  1.26710126716E-02  1.28368111917E-02  1.30047791635E-02  1.31749449739E-02
  1.33473373813E-02  1.35219855206E-02  1.36989189075E-02  1.38781674444E-02
  1.40597614246E-02  1.42437315380E-02  1.44301088759E-02  1.46189249365E-02
  1.48102116302E-02  1.50040012850E-02  1.52003266517E-02  1.53992209097E-02
  1.56007176728E-02  1.58048509942E-02  1.60116553731E-02  1.62211657599E-02
  1.64334175623E-02  1.66484466514E-02  1.68662893675E-02  1.70869825268E-02
  1.73105634267E-02  1.75370698531E-02  1.77665400860E-02  1.79990129065E-02
  1.82345276029E-02  1.84731239780E-02  1.87148423550E-02  1.89597235848E-02
  1.92078090531E-02  1.94591406869E-02  1.97137609617E-02  1.99717129090E-02
  2.02330401234E-02  2.04977867697E-02  2.07659975907E-02  2.10377179148E-02
  2.13129936633E-02  2.15918713584E-02  2.18743981312E-02  2.21606217293E-02
  2.24505905252E-02  2.27443535244E-02  2.30419603735E-02  2.33434613687E-02
  2.36489074644E-02  2.39583502818E-02  2.42718421174E-02  2.45894359521E-02
  2.49111854599E-02  2.52371450175E-02  2.55673697126E-02  2.59019153540E-02
  2.62408384808E-02  2.65841963717E-02  2.69320470551E-02  2.72844493185E-02
  2.76414627188E-02  2.80031475921E-02  2.83695650640E-02  2.87407770600E-02
  2.91168463156E-02  2.94978363876E-02  2.98838116641E-02  3.02748373759E-02
  3.06709796073E-02  3.10723053073E-02  3.14788823008E-02  3.18907793004E-02
  3.23080659175E-02  3.27308126747E-02  3.31590910171E-02  3.35929733248E-02
  3.40325329250E-02  3.44778441043E-02  3.49289821212E-02  3.53860232193E-02
  3.58490446395E-02  3.63181246336E-02  3.67933424772E-02  3.72747784832E-02
  3.77625140155E-02  3.82566315026E-02  3.87572144514E-02  3.92643474618E-02
  3.97781162403E-02  4.02986076151E-02  4.08259095505E-02  4.13601111619E-02
  4.19013027304E-02  4.24495757188E-02  4.30050227866E-02  4.35677378056E-02
  4.41378158759E-02  4.47153533422E-02  4.53004478096E-02  4.58931981606E-02
  4.64937045712E-02  4.71020685286E-02  4.77183928476E-02  4.83427816887E-02
  4.89753405749E-02  4.96161764102E-02  5.02653974974E-02  5.09231135565E-02
  5.15894357429E-02  5.22644766668E-02  5.29483504116E-02  5.36411725536E-02
  5.43430601815E-02  5.50541319159E-02  5.57745079297E-02  5.65043099680E-02
  5.72436613692E-02  5.79926870854E-02  5.87515137037E-02  5.95202694677E-02
  6.02990842989E-02  6.10880898189E-02  6.18874193715E-02  6.26972080452E-02
  6.35175926963E-02  6.43487119717E-02  6.51907063326E-02  6.60437180781E-02
  6.69078913691E-02  6.77833722530E-02  6.86703086881E-02  6.95688505689E-02
  7.04791497509E-02  7.14013600770E-02  7.23356374030E-02  7.32821396238E-02
  7.42410267006E-02  7.52124606876E-02  7.61966057595E-02  7.71936282392E-02
  7.82036966257E-02  7.92269816231E-02  8.02636561689E-02  8.13138954637E-02
  8.23778770004E-02  8.34557805943E-02  8.45477884138E-02  8.56540850108E-02
  8.67748573519E-02  8.79102948506E-02  8.90605893982E-02  9.02259353975E-02
  9.14065297946E-02  9.26025721128E-02  9.38142644861E-02  9.50418116933E-02
  9.62854211930E-02  9.75453031579E-02  9.88216705113E-02  1.00114738962E-01
  1.01424727042E-01  1.02751856143E-01  1.04096350551E-01  1.05458437491E-01
  1.06838347157E-01  1.08236312759E-01  1.09652570555E-01  1.11087359896E-01
  1.12540923266E-01  1.14013506319E-01  1.15505357927E-01  1.17016730215E-01
  1.18547878608E-01  1.20099061876E-01  1.21670542170E-01  1.23262585076E-01
  1.24875459652E-01  1.26509438478E-01  1.28164797701E-01  1.29841817079E-01
  1.31540780033E-01  1.33261973692E-01  1.35005688942E-01  1.36772220475E-01
  1.38561866838E-01  1.40374930487E-01  1.42211717833E-01  1.44072539298E-01
  1.45957709365E-01  1.47867546632E-01  1.49802373866E-01  1.51762518059E-01
  1.53748310478E-01  1.55760086727E-01  1.57798186802E-01  1.59862955146E-01
  1.61954740709E-01  1.64073897010E-01  1.66220782190E-01  1.68395759077E-01
  1.70599195248E-01  1.72831463090E-01  1.75092939860E-01  1.77384007754E-01
  1.79705053967E-01  1.82056470762E-01  1.84438655534E-01  1.86852010878E-01
  1.89296944656E-01  1.91773870068E-01  1.94283205721E-01  1.96825375698E-01
  1.99400809632E-01  2.02009942778E-01  2.04653216084E-01  2.07331076272E-01
  2.10043975904E-01  2.12792373469E-01  2.15576733451E-01  2.18397526414E-01
  2.21255229079E-01  2.24150324404E-01  2.27083301667E-01  2.30054656549E-01
  2.33064891216E-01  2.36114514403E-01  2.39204041506E-01  2.42333994661E-01
  2.45504902838E-01  2.48717301928E-01  2.51971734834E-01  2.55268751562E-01
  2.58608909318E-01  2.61992772594E-01  2.65420913273E-01  2.68893910718E-01
  2.72412351873E-01  2.75976831365E-01  2.79587951597E-01  2.83246322859E-01
  2.86952563424E-01  2.90707299655E-01  2.94511166112E-01  2.98364805656E-01
  3.02268869563E-01  3.06224017628E-01  3.10230918281E-01  3.14290248698E-01
  3.18402694915E-01  3.22568951945E-01  3.26789723895E-01  3.31065724087E-01
  3.35397675174E-01  3.39786309266E-01  3.44232368054E-01  3.48736602931E-01
  3.53299775124E-01  3.57922655819E-01  3.62606026296E-01  3.67350678054E-01
  3.72157412951E-01  3.77027043336E-01  3.81960392189E-01  3.86958293258E-01
  3.92021591199E-01  3.97151141722E-01  4.02347811733E-01  4.07612479482E-01
  4.12946034710E-01  4.18349378801E-01  4.23823424933E-01  4.29369098232E-01
  4.34987335931E-01  4.40679087525E-01  4.46445314933E-01  4.52286992663E-01
  4.58205107970E-01  4.64200661031E-01  4.70274665109E-01  4.76428146725E-01
  4.82662145831E-01  4.88977715989E-01  4.95375924545E-01  5.01857852811E-01
  5.08424596248E-01  5.15077264653E-01  5.21816982341E-01  5.28644888341E-01
  5.35562136585E-01  5.42569896105E-01  5.49669351229E-01  5.56861701782E-01
  5.64148163287E-01  5.71529967175E-01  5.79008360988E-01  5.86584608592E-01
  5.94259990390E-01  6.02035803542E-01  6.09913362177E-01  6.17893997622E-01
  6.25979058623E-01  6.34169911575E-01  6.42467940752E-01  6.50874548540E-01
  6.59391155675E-01  6.68019201485E-01  6.76760144131E-01  6.85615460851E-01
  6.94586648216E-01  7.03675222378E-01  7.12882719327E-01  7.22210695153E-01
  7.31660726305E-01  7.41234409861E-01  7.50933363796E-01  7.60759227257E-01
  7.70713660839E-01  7.80798346863E-01  7.91014989667E-01  8.01365315886E-01
  8.11851074751E-01  8.22474038380E-01  8.33236002080E-01  8.44138784646E-01
  8.55184228677E-01  8.66374200877E-01  8.77710592379E-01  8.89195319061E-01
  9.00830321868E-01  9.12617567143E-01  9.24559046959E-01  9.36656779455E-01
  9.48912809176E-01  9.61329207420E-01  9.73908072588E-01  9.86651530539E-01
  9.99561734946E-01  1.01264086767E+00  1.02589113910E+00  1.03931478858E+00
  1.05291408474E+00  1.06669132588E+00  1.08064884039E+00  1.09478898713E+00
  1.10911415581E+00  1.12362676743E+00  1.13832927464E+00  1.15322416221E+00
  1.16831394741E+00  1.18360118045E+00  1.19908844490E+00  1.21477835815E+00
  1.23067357184E+00  1.24677677229E+00  1.26309068099E+00  1.27961805501E+00
  1.29636168753E+00  1.31332440826E+00  1.33050908395E+00  1.34791861883E+00
  1.36555595517E+00  1.38342407372E+00  1.40152599422E+00  1.41986477596E+00
  1.43844351822E+00  1.45726536086E+00  1.47633348482E+00  1.49565111264E+00
  1.51522150907E+00  1.53504798154E+00  1.55513388077E+00  1.57548260132E+00
  1.59609758219E+00  1.61698230734E+00  1.63814030636E+00  1.65957515498E+00
  1.68129047576E+00  1.70328993863E+00  1.72557726155E+00  1.74815621114E+00
  1.77103060329E+00  1.79420430382E+00  1.81768122915E+00  1.84146534694E+00
  1.86556067675E+00  1.88997129076E+00  1.91470131441E+00  1.93975492714E+00
  1.96513636307E+00  1.99084991173E+00  2.01689991876E+00  2.04329078667E+00
  2.07002697559E+00  2.09711300400E+00  2.12455344950E+00  2.15235294958E+00
  2.18051620244E+00  2.20904796772E+00  2.23795306737E+00  2.26723638642E+00
  2.29690287381E+00  2.32695754325E+00  2.35740547405E+00  2.38825181199E+00
  2.41950177018E+00  2.45116062992E+00  2.48323374164E+00  2.51572652577E+00
  2.54864447367E+00  2.58199314856E+00  2.61577818643E+00  2.65000529704E+00
  2.68468026486E+00  2.71980895003E+00  2.75539728938E+00  2.79145129744E+00
  2.82797706740E+00  2.86498077223E+00  2.90246866562E+00  2.94044708313E+00
  2.97892244319E+00  3.01790124823E+00  3.05739008577E+00  3.09739562951E+00
  3.13792464048E+00  3.17898396819E+00  3.22058055175E+00  3.26272142109E+00
  3.30541369812E+00  3.34866459793E+00  3.39248143003E+00  3.43687159956E+00
  3.48184260857E+00  3.52740205727E+00  3.57355764532E+00  3.62031717311E+00
  3.66768854312E+00  3.71567976122E+00  3.76429893805E+00  3.81355429036E+00
  3.86345414241E+00  3.91400692742E+00  3.96522118891E+00  4.01710558222E+00
  4.06966887593E+00  4.12291995337E+00  4.17686781410E+00  4.23152157542E+00
  4.28689047397E+00  4.34298386721E+00  4.39981123506E+00  4.45738218147E+00
  4.51570643609E+00  4.57479385584E+00  4.63465442664E+00  4.69529826508E+00
  4.75673562009E+00  4.81897687474E+00  4.88203254796E+00  4.94591329630E+00
  5.01062991575E+00  5.07619334359E+00  5.14261466018E+00  5.20990509089E+00
  5.27807600796E+00  5.34713893244E+00  5.41710553613E+00  5.48798764354E+00
  5.55979723393E+00  5.63254644328E+00  5.70624756639E+00  5.78091305892E+00
  5.85655553952E+00  5.93318779194E+00  6.01082276721E+00  6.08947358585E+00
  6.16915354001E+00  6.24987609580E+00  6.33165489553E+00  6.41450376001E+00
  6.49843669089E+00  6.58346787303E+00  6.66961167692E+00  6.75688266105E+00
  6.84529557444E+00  6.93486535907E+00  7.02560715245E+00  7.11753629016E+00
  7.21066830845E+00  7.30501894684E+00  7.40060415082E+00  7.49744007451E+00
  7.59554308343E+00  7.69492975720E+00  7.79561689242E+00  7.89762150544E+00
  8.00096083530E+00  8.10565234658E+00  8.21171373240E+00  8.31916291738E+00
  8.42801806070E+00  8.53829755913E+00  8.65002005017E+00  8.76320441519E+00
  8.87786978261E+00  8.99403553115E+00  9.11172129311E+00  9.23094695765E+00
  9.35173267419E+00  9.47409885582E+00  9.59806618270E+00  9.72365560561E+00
  9.85088834946E+00  9.97978591689E+00  1.01103700919E+01  1.02426629435E+01
  1.03766868295E+01  1.05124644003E+01  1.06500186026E+01  1.07893726834E+01
  1.09305501939E+01  1.10735749933E+01  1.12184712533E+01  1.13652634617E+01
  1.15139764266E+01  1.16646352809E+01  1.18172654863E+01  1.19718928378E+01
  1.21285434676E+01  1.22872438502E+01  1.24480208062E+01  1.26109015073E+01
  1.27759134808E+01  1.29430846141E+01  1.31124431595E+01  1.32840177390E+01
  1.34578373491E+01  1.36339313658E+01  1.38123295493E+01  1.39930620494E+01
  1.41761594103E+01  1.43616525758E+01  1.45495728948E+01  1.47399521263E+01
  1.49328224448E+01  1.51282164458E+01  1.53261671514E+01  1.55267080157E+01
  1.57298729306E+01  1.59356962315E+01  1.61442127029E+01  1.63554575848E+01
  1.65694665779E+01  1.67862758503E+01  1.70059220433E+01  1.72284422775E+01
  1.74538741595E+01  1.76822557878E+01  1.79136257594E+01  1.81480231764E+01
  1.83854876525E+01  1.86260593198E+01  1.88697788355E+01  1.91166873886E+01
  1.93668267075E+01  1.96202390661E+01  1.98769672919E+01  2.01370547724E+01
  2.04005454631E+01  2.06674838946E+01  2.09379151800E+01  2.12118850229E+01
  2.14894397249E+01  2.17706261933E+01  2.20554919494E+01  2.23440851361E+01
  2.26364545264E+01  2.29326495314E+01  2.32327202087E+01  2.35367172710E+01
  2.38446920946E+01  2.41566967279E+01  2.44727839004E+01  2.47930070317E+01
  2.51174202402E+01  2.54460783524E+01  2.57790369125E+01  2.61163521911E+01
  2.64580811955E+01  2.68042816785E+01  2.71550121490E+01  2.75103318811E+01
  2.78703009248E+01  2.82349801157E+01  2.86044310854E+01  2.89787162720E+01
  2.93578989307E+01  2.97420431442E+01  3.01312138337E+01  3.05254767701E+01
  3.09248985848E+01  3.13295467809E+01  3.17394897449E+01  3.21547967583E+01
  3.25755380089E+01  3.30017846029E+01  3.34336085771E+01  3.38710829107E+01
  3.43142815379E+01  3.47632793603E+01  3.52181522598E+01  3.56789771107E+01
  3.61458317938E+01  3.66187952084E+01  3.70979472866E+01  3.75833690062E+01
  3.80751424045E+01  3.85733505926E+01  3.90780777687E+01  3.95894092330E+01
  4.01074314017E+01  4.06322318217E+01  4.11638991856E+01  4.17025233465E+01
  4.22481953330E+01  4.28010073652E+01  4.33610528694E+01  4.39284264948E+01
  4.45032241288E+01  4.50855429136E+01  4.56754812625E+01  4.62731388764E+01
  4.68786167609E+01  4.74920172432E+01  4.81134439895E+01  4.87430020223E+01
  4.93807977385E+01  5.00269389271E+01  5.06815347873E+01  5.13446959476E+01
  5.20165344837E+01  5.26971639380E+01  5.33866993383E+01  5.40852572179E+01
  5.47929556348E+01  5.55099141915E+01  5.62362540558E+01  5.69720979810E+01
  5.77175703263E+01  5.84727970783E+01  5.92379058722E+01  6.00130260133E+01
  6.07982884985E+01  6.15938260392E+01  6.23997730831E+01  6.32162658372E+01
  6.40434422906E+01  6.48814422383E+01  6.57304073041E+01  6.65904809652E+01
  6.74618085760E+01  6.83445373931E+01  6.92388165996E+01  7.01447973310E+01
  7.10626327001E+01  7.19924778232E+01  7.29344898464E+01  7.38888279720E+01
  7.48556534854E+01  7.58351297824E+01  7.68274223968E+01  7.78326990284E+01
  7.88511295715E+01  7.98828861431E+01  8.09281431126E+01  8.19870771309E+01
  8.30598671604E+01  8.41466945051E+01  8.52477428415E+01  8.63631982493E+01
  8.74932492431E+01  8.86380868044E+01  8.97979044132E+01  9.09728980816E+01
  9.21632663864E+01  9.33692105025E+01  9.45909342374E+01  9.58286440653E+01
  9.70825491622E+01  9.83528614410E+01  9.96397955874E+01  1.00943569096E+02
  1.02264402309E+02  1.03602518449E+02  1.04958143661E+02  1.06331507049E+02
  1.07722840715E+02  1.09132379797E+02  1.10560362511E+02  1.12007030190E+02
  1.13472627324E+02  1.14957401601E+02  1.16461603953E+02  1.17985488593E+02
  </PP_R>
  <PP_RAB>
  8.18948789902E-07  8.29664626192E-07  8.40520677779E-07  8.51518779361E-07
  8.62660789643E-07  8.73948591652E-07  8.85384093053E-07  8.96969226474E-07
  9.08705949828E-07  9.20596246650E-07  9.32642126430E-07  9.44845624948E-07
  9.57208804626E-07  9.69733754870E-07  9.82422592427E-07  9.95277461740E-07
  1.00830053531E-06  1.02149401408E-06  1.03486012776E-06  1.04840113527E-06
  1.06211932506E-06  1.07601701555E-06  1.09009655548E-06  1.10436032431E-06
  1.11881073268E-06  1.13345022271E-06  1.14828126854E-06  1.16330637663E-06
  1.17852808626E-06  1.19394896995E-06  1.20957163386E-06  1.22539871825E-06
  1.24143289794E-06  1.25767688275E-06  1.27413341794E-06  1.29080528471E-06
  1.30769530065E-06  1.32480632021E-06  1.34214123518E-06  1.35970297522E-06
  1.37749450830E-06  1.39551884123E-06  1.41377902017E-06  1.43227813112E-06
  1.45101930049E-06  1.47000569557E-06  1.48924052512E-06  1.50872703986E-06
  1.52846853306E-06  1.54846834107E-06  1.56872984393E-06  1.58925646586E-06
  1.61005167592E-06  1.63111898854E-06  1.65246196415E-06  1.67408420977E-06
  1.69598937960E-06  1.71818117568E-06  1.74066334846E-06  1.76343969750E-06
  1.78651407203E-06  1.80989037170E-06  1.83357254715E-06  1.85756460073E-06
  1.88187058714E-06  1.90649461416E-06  1.93144084331E-06  1.95671349056E-06
  1.98231682704E-06  2.00825517979E-06  2.03453293244E-06  2.06115452600E-06
  2.08812445958E-06  2.11544729117E-06  2.14312763838E-06  2.17117017926E-06
  2.19957965307E-06  2.22836086108E-06  2.25751866738E-06  2.28705799970E-06
  2.31698385027E-06  2.34730127663E-06  2.37801540249E-06  2.40913141861E-06
  2.44065458367E-06  2.47259022517E-06  2.50494374030E-06  2.53772059689E-06
  2.57092633430E-06  2.60456656437E-06  2.63864697240E-06  2.67317331804E-06
  2.70815143634E-06  2.74358723867E-06  2.77948671378E-06  2.81585592876E-06
  2.85270103009E-06  2.89002824468E-06  2.92784388093E-06  2.96615432976E-06
  3.00496606574E-06  3.04428564813E-06  3.08411972204E-06  3.12447501952E-06
  3.16535836072E-06  3.20677665502E-06  3.24873690220E-06  3.29124619366E-06
  3.33431171355E-06  3.37794074006E-06  3.42214064659E-06  3.46691890304E-06
  3.51228307703E-06  3.55824083522E-06  3.60479994459E-06  3.65196827372E-06
  3.69975379418E-06  3.74816458185E-06  3.79720881824E-06  3.84689479197E-06
  3.89723090007E-06  3.94822564946E-06  3.99988765839E-06  4.05222565786E-06
  4.10524849310E-06  4.15896512511E-06  4.21338463213E-06  4.26851621118E-06
  4.32436917962E-06  4.38095297675E-06  4.43827716536E-06  4.49635143338E-06
  4.55518559549E-06  4.61478959480E-06  4.67517350455E-06  4.73634752974E-06
  4.79832200893E-06  4.86110741597E-06  4.92471436173E-06  4.98915359594E-06
  5.05443600898E-06  5.12057263373E-06  5.18757464745E-06  5.25545337363E-06
  5.32422028394E-06  5.39388700015E-06  5.46446529610E-06  5.53596709970E-06
  5.60840449490E-06  5.68178972382E-06  5.75613518872E-06  5.83145345417E-06
  5.90775724913E-06  5.98505946913E-06  6.06337317843E-06  6.14271161222E-06
  6.22308817890E-06  6.30451646229E-06  6.38701022396E-06  6.47058340557E-06
  6.55525013117E-06  6.64102470965E-06  6.72792163711E-06  6.81595559934E-06
  6.90514147428E-06  6.99549433457E-06  7.08702945006E-06  7.17976229039E-06
  7.27370852763E-06  7.36888403893E-06  7.46530490917E-06  7.56298743371E-06
  7.66194812112E-06  7.76220369600E-06  7.86377110179E-06  7.96666750360E-06
  8.07091029118E-06  8.17651708182E-06  8.28350572330E-06  8.39189429696E-06
  8.50170112074E-06  8.61294475223E-06  8.72564399189E-06  8.83981788616E-06
  8.95548573068E-06  9.07266707361E-06  9.19138171887E-06  9.31164972951E-06
  9.43349143112E-06  9.55692741524E-06  9.68197854284E-06  9.80866594785E-06
  9.93701104075E-06  1.00670355122E-05  1.01987613366E-05  1.03322107759E-05
  1.04674063834E-05  1.06043710075E-05  1.07431277956E-05  1.08837001978E-05
  1.10261119713E-05  1.11703871840E-05  1.13165502186E-05  1.14646257772E-05
  1.16146388848E-05  1.17666148941E-05  1.19205794892E-05  1.20765586907E-05
  1.22345788593E-05  1.23946667009E-05  1.25568492707E-05  1.27211539778E-05
  1.28876085903E-05  1.30562412393E-05  1.32270804241E-05  1.34001550170E-05
  1.35754942680E-05  1.37531278099E-05  1.39330856630E-05  1.41153982408E-05
  1.43000963546E-05  1.44872112186E-05  1.46767744558E-05  1.48688181028E-05
  1.50633746155E-05  1.52604768743E-05  1.54601581901E-05  1.56624523094E-05
  1.58673934203E-05  1.60750161586E-05  1.62853556128E-05  1.64984473309E-05
  1.67143273259E-05  1.69330320820E-05  1.71545985608E-05  1.73790642075E-05
  1.76064669575E-05  1.78368452424E-05  1.80702379965E-05  1.83066846638E-05
  1.85462252044E-05  1.87889001013E-05  1.90347503669E-05  1.92838175507E-05
  1.95361437455E-05  1.97917715952E-05  2.00507443013E-05  2.03131056310E-05
  2.05788999238E-05  2.08481720997E-05  2.11209676663E-05  2.13973327268E-05
  2.16773139874E-05  2.19609587656E-05  2.22483149981E-05  2.25394312489E-05
  2.28343567171E-05  2.31331412460E-05  2.34358353308E-05  2.37424901276E-05
  2.40531574617E-05  2.43678898367E-05  2.46867404430E-05  2.50097631673E-05
  2.53370126010E-05  2.56685440502E-05  2.60044135444E-05  2.63446778464E-05
  2.66893944617E-05  2.70386216481E-05  2.73924184260E-05  2.77508445877E-05
  2.81139607083E-05  2.84818281551E-05  2.88545090987E-05  2.92320665230E-05
  2.96145642361E-05  3.00020668810E-05  3.03946399467E-05  3.07923497789E-05
  3.11952635914E-05  3.16034494778E-05  3.20169764223E-05  3.24359143120E-05
  3.28603339485E-05  3.32903070596E-05  3.37259063119E-05  3.41672053225E-05
  3.46142786722E-05  3.50672019174E-05  3.55260516032E-05  3.59909052762E-05
  3.64618414979E-05  3.69389398576E-05  3.74222809861E-05  3.79119465691E-05
  3.84080193613E-05  3.89105832002E-05  3.94197230203E-05  3.99355248673E-05
  4.04580759132E-05  4.09874644701E-05  4.15237800061E-05  4.20671131598E-05
  4.26175557557E-05  4.31752008200E-05  4.37401425959E-05  4.43124765601E-05
  4.48922994383E-05  4.54797092219E-05  4.60748051846E-05  4.66776878991E-05
  4.72884592539E-05  4.79072224709E-05  4.85340821225E-05  4.91691441495E-05
  4.98125158789E-05  5.04643060420E-05  5.11246247930E-05  5.17935837272E-05
  5.24712959004E-05  5.31578758474E-05  5.38534396020E-05  5.45581047161E-05
  5.52719902797E-05  5.59952169412E-05  5.67279069277E-05  5.74701840654E-05
  5.82221738011E-05  5.89840032227E-05  5.97558010812E-05  6.05376978123E-05
  6.13298255585E-05  6.21323181911E-05  6.29453113334E-05  6.37689423831E-05
  6.46033505359E-05  6.54486768086E-05  6.63050640635E-05  6.71726570321E-05
  6.80516023396E-05  6.89420485298E-05  6.98441460903E-05  7.07580474778E-05
  7.16839071437E-05  7.26218815605E-05  7.35721292481E-05  7.45348108007E-05
  7.55100889137E-05  7.64981284115E-05  7.74990962750E-05  7.85131616703E-05
  7.95404959767E-05  8.05812728163E-05  8.16356680828E-05  8.27038599715E-05
  8.37860290094E-05  8.48823580856E-05  8.59930324823E-05  8.71182399062E-05
  8.82581705200E-05  8.94130169747E-05  9.05829744420E-05  9.17682406477E-05
  9.29690159044E-05  9.41855031461E-05  9.54179079619E-05  9.66664386314E-05
  9.79313061590E-05  9.92127243105E-05  1.00510909648E-04  1.01826081569E-04
  1.03158462341E-04  1.04508277137E-04  1.05875754082E-04  1.07261124280E-04
  1.08664621865E-04  1.10086484028E-04  1.11526951070E-04  1.12986266432E-04