                                                                                     
                             WELCOME TO ABACUS                                       
                                                                                     
               'Atomic-orbital Based Ab-initio Computation at UStc'                  
                                                                                     
    Version: Parallel, under ALPHA test
    Processor Number is 1
    Start Time is Wed Sep 30 16:34:20 2015
                                                                                     
 ------------------------------------------------------------------------------------

 READING GENERAL INFORMATION
                           global_out_dir = OUT.N-6-3.0/
                           global_in_card = INPUT
                               pseudo_dir = ./
                              pseudo_type = upf
                                    DRANK = 1
                                    DSIZE = 1
                                   DCOLOR = 1
                                    GRANK = 1
                                    GSIZE = 1
Open file : INPUTw




 >>>>>>>>>>>>>>>>>>>>>>>>>>>>>>>>>>>>>>>>>>>>>>>>>>>>>>>>>>>>>>>>>>>>>>
 |                                                                    |
 | Reading atom information in unitcell:                              |
 | From the input file and the structure file we know the number of   |
 | different elments in this unitcell, then we list the detail        |
 | information for each element, especially the zeta and polar atomic |
 | orbital number for each element. The total atom number is counted. |
 | We calculate the nearest atom distance for each atom and show the  |
 | Cartesian and Direct coordinates for each atom. We list the file   |
 | address for atomic orbitals and nonlocal projectors. The volume    |
 | and the lattice vectors in real and reciprocal space is also shown.|
 |                                                                    |
 <<<<<<<<<<<<<<<<<<<<<<<<<<<<<<<<<<<<<<<<<<<<<<<<<<<<<<<<<<<<<<<<<<<<<<




 READING UNITCELL INFORMATION
                                    ntype = 1
                 atom label for species 1 = N
                  lattice constant (Bohr) = 20
              lattice constant (Angstrom) = 10.5835

 READING ATOM TYPE 1
                               atom label = N
                      start magnetization = FALSE
                      L=0, number of zeta = 1
                      L=1, number of zeta = 1
                      L=2, number of zeta = 1
             number of atom for this type = 2

                        TOTAL ATOM NUMBER = 2

 Output nearest atom not considering periodic boundary condition
  TYPE INDEX       NEAREST(Bohr)   NEAREST(Angstrom)
     N     1                   0                   0
     N     2                   0                   0

 CARTESIAN COORDINATES ( UNIT = 20 Bohr ).
         atom                   x                   y                   z mag
      tauc_N1                   0                   0                   0 0
      tauc_N2                   0                   0      0.283459031667 0

 DIRECT COORDINATES
         atom                   x                   y                   z mag
      taud_N1                   0                   0                   0 0
      taud_N2                   0                   0      0.283459031667 0


                          Volume (Bohr^3) = 8000
                             Volume (A^3) = 1185.47627437

 Lattice vectors: (Cartesian coordinate: in unit of a_0)
                   +1                  +0                  +0
                   +0                  +1                  +0
                   +0                  +0                  +1
 Reciprocal vectors: (Cartesian coordinate: in unit of 2 pi/a_0)
                   +1                  +0                  +0
                   +0                  +1                  +0
                   +0                  +0                  +1




 >>>>>>>>>>>>>>>>>>>>>>>>>>>>>>>>>>>>>>>>>>>>>>>>>>>>>>>>>>>>>>>>>>>>>>
 |                                                                    |
 | Reading pseudopotentials files:                                    |
 | The pseudopotential file is in UPF format. The 'NC' indicates that |
 | the type of pseudopotential is 'norm conserving'. Functional of    |
 | exchange and correlation is decided by 4 given parameters in UPF   |
 | file.  We also read in the 'core correction' if there exists.      |
 | Also we can read the valence electrons number and the maximal      |
 | angular momentum used in this pseudopotential. We also read in the |
 | trail wave function, trail atomic density and local-pseudopotential|
 | on logrithmic grid. The non-local pseudopotential projector is also|
 | read in if there is any.                                           |
 |                                                                    |
 <<<<<<<<<<<<<<<<<<<<<<<<<<<<<<<<<<<<<<<<<<<<<<<<<<<<<<<<<<<<<<<<<<<<<<




                PAO radial cut off (Bohr) = 15

 Read in pseudopotential file is N.LDA.UPF
                     pseudopotential type = NC
                            functional Ex = SLA
                            functional Ec = PZ
                          functional GCEx = NOGX
                          functional GCEc = NOGC
                 nonlocal core correction = 0
                        valence electrons = 5
                                     lmax = 1
                           number of zeta = 2
                     number of projectors = 1
                           L of projector = 1

 SETUP THE ELECTRONS NUMBER
             electron number of element N = 5
       total electron number of element N = 10
                           occupied bands = 5
                                   NBANDS = 8
     initial pseudo atomic orbital number = 8
                                   NLOCAL = 18
 DONE : SETUP UNITCELL Time : 0.0176811218262 (SEC)





 >>>>>>>>>>>>>>>>>>>>>>>>>>>>>>>>>>>>>>>>>>>>>>>>>>>>>>>>>>>>>>>>>>>>>>
 |                                                                    |
 | Setup K-points                                                     |
 | We setup the k-points according to input parameters.               |
 | The reduced k-points are set according to symmetry operations.     |
 | We treat the spin as another set of k-points.                      |
 |                                                                    |
 <<<<<<<<<<<<<<<<<<<<<<<<<<<<<<<<<<<<<<<<<<<<<<<<<<<<<<<<<<<<<<<<<<<<<<





 SETUP K-POINTS
                                    nspin = 1
                   Input type of k points = Monkhorst-Pack(Gamma)
                                   nkstot = 1

  KPOINTS            DIRECT_X            DIRECT_Y            DIRECT_Z              WEIGHT
        1                   0                   0                   0                   1

           k-point number in this process = 1
       minimum distributed K point number = 1

  KPOINTS         CARTESIAN_X         CARTESIAN_Y         CARTESIAN_Z              WEIGHT
        1                   0                   0                   0                   2

  KPOINTS            DIRECT_X            DIRECT_Y            DIRECT_Z              WEIGHT
        1                   0                   0                   0                   2
 DONE : INIT K-POINTS Time : 0.0178508758545 (SEC)





 >>>>>>>>>>>>>>>>>>>>>>>>>>>>>>>>>>>>>>>>>>>>>>>>>>>>>>>>>>>>>>>>>>>>>>
 |                                                                    |
 | Setup plane waves:                                                 |
 | Use the energy cutoff and the lattice vectors to generate the      |
 | dimensions of FFT grid. The number of FFT grid on each processor   |
 | is 'nrxx'. The number of plane wave basis in reciprocal space is   |
 | different for charege/potential and wave functions. We also set    |
 | the 'sticks' for the parallel of FFT.                              |
 |                                                                    |
 <<<<<<<<<<<<<<<<<<<<<<<<<<<<<<<<<<<<<<<<<<<<<<<<<<<<<<<<<<<<<<<<<<<<<<





 SETUP THE PLANE WAVE BASIS
     energy cutoff for wavefunc (unit:Ry) = 50
            [fft grid for wave functions] = 96, 96, 96
          [fft grid for charge/potential] = 96, 96, 96
                      [fft grid division] = 1, 1, 1
      [big fft grid for charge/potential] = 96, 96, 96
                                     nbxx = 884736
                                     nrxx = 884736

 SETUP PLANE WAVES FOR CHARGE/POTENTIAL
                    number of plane waves = 382323
                         number of sticks = 6369

 SETUP PLANE WAVES FOR WAVE FUNCTIONS
                    number of plane waves = 47833
                         number of sticks = 1597

 PARALLEL PW FOR CHARGE/POTENTIAL
     PROC   COLUMNS(POT)             PW
        1           6369         382323
 --------------- sum -------------------
        1           6369         382323

 PARALLEL PW FOR WAVE FUNCTIONS
     PROC     COLUMNS(W)             PW
        1           1597          47833
 --------------- sum -------------------
        1           1597          47833

 SETUP COORDINATES OF PLANE WAVES
              number of total plane waves = 382323
                            number of |g| = 1691
                                  max |g| = 2026
                                  min |g| = 0
 DONE : INIT PLANEWAVE Time : 10.5775508881 (SEC)

                                     npwx = 47833

 SETUP NONLOCAL PSEUDOPOTENTIALS IN PLANE WAVE BASIS
 N non-local projectors:
 projector 1 L=1
      TOTAL NUMBER OF NONLOCAL PROJECTORS = 6
 DONE : LOCAL POTENTIAL Time : 10.6532547474 (SEC)


 Init Non-Local PseudoPotential table : 
 Init Non-Local-Pseudopotential done.
 DONE : NON-LOCAL POTENTIAL Time : 10.6689448357 (SEC)

                                start_pot = atomic
 DONE : INIT POTENTIAL Time : 11.0062 (SEC)


 Make real space PAO into reciprocal space.
       max mesh points in Pseudopotential = 967
     dq(describe PAO in reciprocal space) = 0.01
                                    max q = 712

 number of pseudo atomic orbitals for N is 2
 the unit of pseudo atomic orbital is 1, renormalize to 1
 the unit of pseudo atomic orbital is 1, renormalize to 1

 Make real space PAO into reciprocal space.
       max mesh points in Pseudopotential = 967
     dq(describe PAO in reciprocal space) = 0.01
                                    max q = 712

 number of pseudo atomic orbitals for N is 2
 the unit of pseudo atomic orbital is 1, renormalize to 1
 the unit of pseudo atomic orbital is 1, renormalize to 1
 DONE : INIT BASIS Time : 11.8187 (SEC)

 -------------------------------------------
 -------------------------------------------

 PW ALGORITHM --------------- ION=   1  ELEC=   1--------------------------------
  K-point    CG iter num      Time(Sec)
 Energy (eV) & Occupations  for spin=1 K-point=1
      1     -18.338692       1.250000
      2     -18.086031       1.250000
      3      -7.494256       1.250000
      4      -7.102152       1.250000
      5      -7.102152       1.250000
      6      -6.871578       1.250000
      7      -6.871578       1.250000
      8      -6.457745       1.250000
        1       2.000000       2.040000
 Notice: Threshold on eigenvalues was too large.
 dr2=0.007589 < diago_error=0.100000
 Origin ETHR = 0.010000
 New    ETHR = 0.000759

 Density error is 0.007589319388
                          Error Threshold = 0.000758931939

       Energy                       Rydberg                            eV
   E_KohnSham              -38.235827795020             -520.225125759050
     E_Harris              -38.544725918335             -524.427900337636
       E_band               -8.536139628396             -116.140137869791
   E_one_elec              -52.452756328487             -713.656361872981
    E_Hartree              +27.334546867683             +371.905589648538
         E_xc               -8.516952634996             -115.879085432053
      E_Ewald               -4.894904152326              -66.598587635495
      E_demet               -0.011006911223               -0.149756710020
      E_descf               +0.305245364329               +4.153076242962
     E_efield               +0.000000000000               +0.000000000000
      E_Fermi               -0.513524917911               -6.986864948577

 PW ALGORITHM --------------- ION=   1  ELEC=   2--------------------------------
  K-point    CG iter num      Time(Sec)
 Energy (eV) & Occupations  for spin=1 K-point=1
      1     -18.893713       2.000000
      2     -18.657184       2.000000
      3      -7.977212       2.000000
      4      -7.625768       1.769210
      5      -7.625768       1.769210
      6      -7.416642       0.230790
      7      -7.416642       0.230790
      8      -7.009388       0.000000
        1       3.000000       2.700000

 Density error is 0.003334916020
                          Error Threshold = 0.000075893194

       Energy                       Rydberg                            eV
   E_KohnSham              -38.542070793550             -524.391775511666
     E_Harris              -38.543699790076             -524.413939146431
       E_band               -8.925921411623             -121.443391098279
   E_one_elec              -52.761424451197             -717.856007132796
    E_Hartree              +27.499923419359             +374.155653066919
         E_xc               -8.558907236650             -116.449907071869
      E_Ewald               -4.894904152326              -66.598587635495
      E_demet               -0.012502022734               -0.170098745706
      E_descf               +0.185743649997               +2.527172007281
     E_efield               +0.000000000000               +0.000000000000
      E_Fermi               -0.552798170790               -7.521204966725

 PW ALGORITHM --------------- ION=   1  ELEC=   3--------------------------------
  K-point    CG iter num      Time(Sec)
 Energy (eV) & Occupations  for spin=1 K-point=1
      1     -18.680742       2.000000
      2     -18.432249       2.000000
      3      -7.782349       1.999998
      4      -7.425665       1.722901
      5      -7.425665       1.722901
      6      -7.202585       0.277100
      7      -7.202585       0.277100
      8      -6.792985       0.000000
        1       2.625000       2.480000

 Density error is 0.167388307242
                          Error Threshold = 0.000033349160

       Energy                       Rydberg                            eV
   E_KohnSham              -38.537288651371             -524.326711129383
     E_Harris              -38.543363553025             -524.409364406659
       E_band               -8.774518341104             -119.383446644525
   E_one_elec              -52.638957284228             -716.189755844109
    E_Hartree              +27.501640648607             +374.179017169477
         E_xc               -8.559346167901             -116.455879037919
      E_Ewald               -4.894904152326              -66.598587635495
      E_demet               -0.011524108662               -0.156793542168
      E_descf               +0.065802413138               +0.895287760832
     E_efield               +0.000000000000               +0.000000000000
      E_Fermi               -0.537578054490               -7.314124660815

 PW ALGORITHM --------------- ION=   1  ELEC=   4--------------------------------
  K-point    CG iter num      Time(Sec)
 Energy (eV) & Occupations  for spin=1 K-point=1
      1     -18.695813       2.000000
      2     -18.412753       2.000000
      3      -7.784327       1.999999
      4      -7.441043       1.753698
      5      -7.441043       1.753698
      6      -7.183042       0.246303
      7      -7.183042       0.246303
      8      -6.787017       0.000000
        1       2.000000       2.050000

 Density error is 0.974715174523
                          Error Threshold = 0.000033349160

       Energy                       Rydberg                            eV
   E_KohnSham              -38.536662879644             -524.318197068249
     E_Harris              -38.548014765553             -524.472647399651
       E_band               -8.779931409420             -119.457095217288
   E_one_elec              -52.645536246496             -716.279267217879
    E_Hartree              +27.546069927588             +374.783508521640
         E_xc               -8.570895454922             -116.613015149242
      E_Ewald               -4.894904152326              -66.598587635495
      E_demet               -0.009184846708               -0.124966250488
      E_descf               +0.037787893221               +0.514130663217
     E_efield               +0.000000000000               +0.000000000000
      E_Fermi               -0.537424986533               -7.312042064426

 PW ALGORITHM --------------- ION=   1  ELEC=   5--------------------------------
  K-point    CG iter num      Time(Sec)
 Energy (eV) & Occupations  for spin=1 K-point=1
      1     -18.617338       2.000000
      2     -18.373964       2.000000
      3      -7.728753       1.999999
      4      -7.365700       1.820037
      5      -7.365700       1.820037
      6      -7.147181       0.179964
      7      -7.147181       0.179964
      8      -6.734252       0.000000
        1       2.000000       2.040000

 Density error is 0.003769124194
                          Error Threshold = 0.000033349160

       Energy                       Rydberg                            eV
   E_KohnSham              -38.542383105081             -524.396024728030
     E_Harris              -38.542468371430             -524.397184836228
       E_band               -8.730973253575             -118.790985334218
   E_one_elec              -52.608572471663             -715.776349260557
    E_Hartree              +27.545266348711             +374.772575270121
         E_xc               -8.570810908023             -116.611864829665
      E_Ewald               -4.894904152326              -66.598587635495
      E_demet               -0.011841881825               -0.161117067863
      E_descf               -0.001520039955               -0.020681204571
     E_efield               +0.000000000000               +0.000000000000
      E_Fermi               -0.533338320735               -7.256440123745

 PW ALGORITHM --------------- ION=   1  ELEC=   6--------------------------------
  K-point    CG iter num      Time(Sec)
 Energy (eV) & Occupations  for spin=1 K-point=1
      1     -18.618395       2.000000
      2     -18.374979       2.000000
      3      -7.730179       1.999999
      4      -7.366649       1.743906
      5      -7.366649       1.743906
      6      -7.148035       0.256094
      7      -7.148035       0.256094
      8      -6.735398       0.000000
        1       2.000000       2.040000

 Density error is 0.005194008395
                          Error Threshold = 0.000033349160

       Energy                       Rydberg                            eV
   E_KohnSham              -38.542421495414             -524.396547055307
     E_Harris              -38.542480327759             -524.397347510432
       E_band               -8.731769327788             -118.801816479541
   E_one_elec              -52.604041358501             -715.714700303269
    E_Hartree              +27.537934373972             +374.672818636080
         E_xc               -8.569088784987             -116.588434143720
      E_Ewald               -4.894904152326              -66.598587635495
      E_demet               -0.011835279803               -0.161027242742
      E_descf               -0.000486293769               -0.006616366161
     E_efield               +0.000000000000               +0.000000000000
      E_Fermi               -0.533404602148               -7.257341928642

 PW ALGORITHM --------------- ION=   1  ELEC=   7--------------------------------
  K-point    CG iter num      Time(Sec)
 Energy (eV) & Occupations  for spin=1 K-point=1
      1     -18.627848       2.000000
      2     -18.384805       2.000000
      3      -7.739184       1.999999
      4      -7.375437       1.744112
      5      -7.375437       1.744112
      6      -7.157267       0.255889
      7      -7.157267       0.255889
      8      -6.744997       0.000000
        1       2.000000       2.010000

 Density error is 0.000037058574
                          Error Threshold = 0.000033349160

       Energy                       Rydberg                            eV
   E_KohnSham              -38.542452722081             -524.396971915918
     E_Harris              -38.542453655756             -524.396984619211
       E_band               -8.738496737011             -118.893347577752
   E_one_elec              -52.603872034951             -715.712396538185
    E_Hartree              +27.538510242673             +374.680653731716
         E_xc               -8.569244752023             -116.590556184116
      E_Ewald               -4.894904152326              -66.598587635495
      E_demet               -0.011866228147               -0.161448316564
      E_descf               -0.001075797307               -0.014636973273
     E_efield               +0.000000000000               +0.000000000000
      E_Fermi               -0.534066820194               -7.266351867385

 PW ALGORITHM --------------- ION=   1  ELEC=   8--------------------------------
  K-point    CG iter num      Time(Sec)
 Energy (eV) & Occupations  for spin=1 K-point=1
      1     -18.627102       2.000000
      2     -18.384036       2.000000
      3      -7.738551       1.999999
      4      -7.374725       1.743148
      5      -7.374725       1.743148
      6      -7.156526       0.256853
      7      -7.156526       0.256853
      8      -6.744265       0.000000
        1       2.000000       2.040000

 Density error is 0.000057185528
                          Error Threshold = 0.000000370586

       Energy                       Rydberg                            eV
   E_KohnSham              -38.542452761988             -524.396972458869
     E_Harris              -38.542453929626             -524.396988345406
       E_band               -8.737972597659             -118.886216296025
   E_one_elec              -52.602317879188             -715.691251164230
    E_Hartree              +27.535190378715             +374.635484665303
         E_xc               -8.568439563581             -116.579601033340
      E_Ewald               -4.894904152326              -66.598587635495
      E_demet               -0.011864217310               -0.161420957725
      E_descf               -0.000117328297               -0.001596333382
     E_efield               +0.000000000000               +0.000000000000
      E_Fermi               -0.534013455162               -7.265625798872

 PW ALGORITHM --------------- ION=   1  ELEC=   9--------------------------------
  K-point    CG iter num      Time(Sec)
 Energy (eV) & Occupations  for spin=1 K-point=1
      1     -18.631443       2.000000
      2     -18.388450       2.000000
      3      -7.742542       1.999999
      4      -7.378756       1.743210
      5      -7.378756       1.743210
      6      -7.160678       0.256790
      7      -7.160678       0.256790
      8      -6.748613       0.000000
        1       2.000000       2.040000

 Density error is 0.000027032311
                          Error Threshold = 0.000000370586

       Energy                       Rydberg                            eV
   E_KohnSham              -38.542453245146             -524.396979032573
     E_Harris              -38.542453711193             -524.396985373467
       E_band               -8.741027295542             -118.927777592903
   E_one_elec              -52.603213560601             -715.703437535040
    E_Hartree              +27.535452179305             +374.639046645071
         E_xc               -8.568518252144             -116.580671646159
      E_Ewald               -4.894904152326              -66.598587635495
      E_demet               -0.011872691469               -0.161536254581
      E_descf               +0.000603232089               +0.008207393630
     E_efield               +0.000000000000               +0.000000000000
      E_Fermi               -0.534314123534               -7.269716601936

 PW ALGORITHM --------------- ION=   1  ELEC=  10--------------------------------
  K-point    CG iter num      Time(Sec)
 Energy (eV) & Occupations  for spin=1 K-point=1
      1     -18.631105       2.000000
      2     -18.388102       2.000000
      3      -7.742276       1.999999
      4      -7.378428       1.742946
      5      -7.378428       1.742946
      6      -7.160332       0.257054
      7      -7.160332       0.257054
      8      -6.748286       0.000000
        1       2.000000       2.050000

 Density error is 0.000010328790
                          Error Threshold = 0.000000270323

       Energy                       Rydberg                            eV
   E_KohnSham              -38.542453469681             -524.396982087531
     E_Harris              -38.542453612365             -524.396984028843
       E_band               -8.740791546628             -118.924570064378
   E_one_elec              -52.603268169226             -715.704180523501
    E_Hartree              +27.536447028485             +374.652582262568
         E_xc               -8.568759400095             -116.583952632356
      E_Ewald               -4.894904152326              -66.598587635495
      E_demet               -0.011871464999               -0.161519567591
      E_descf               -0.000097311520               -0.001323991156
     E_efield               +0.000000000000               +0.000000000000
      E_Fermi               -0.534289383862               -7.269380001427

 PW ALGORITHM --------------- ION=   1  ELEC=  11--------------------------------
  K-point    CG iter num      Time(Sec)
 Energy (eV) & Occupations  for spin=1 K-point=1
      1     -18.629807       2.000000
      2     -18.386782       2.000000
      3      -7.741078       1.999999
      4      -7.377218       1.742984
      5      -7.377218       1.742984
      6      -7.159086       0.257016
      7      -7.159086       0.257016
      8      -6.746988       0.000000
        1       2.000000       2.040000

 Density error is 0.000000647527
                          Error Threshold = 0.000000103288

       Energy                       Rydberg                            eV
   E_KohnSham              -38.542453555823             -524.396983259556
     E_Harris              -38.542453562315             -524.396983347879
       E_band               -8.739875841869             -118.912111261959
   E_one_elec              -52.602726973625             -715.696817179596
    E_Hartree              +27.536258203929             +374.650013172676
         E_xc               -8.568712292973             -116.583311707078
      E_Ewald               -4.894904152326              -66.598587635495
      E_demet               -0.011868958724               -0.161485467972
      E_descf               -0.000499382104               -0.006794442091
     E_efield               +0.000000000000               +0.000000000000
      E_Fermi               -0.534199111876               -7.268151788059

 PW ALGORITHM --------------- ION=   1  ELEC=  12--------------------------------
  K-point    CG iter num      Time(Sec)
 Energy (eV) & Occupations  for spin=1 K-point=1
      1     -18.630054       2.000000
      2     -18.387034       2.000000
      3      -7.741301       1.999999
      4      -7.377447       1.743062
      5      -7.377447       1.743062
      6      -7.159323       0.256938
      7      -7.159323       0.256938
      8      -6.747235       0.000000
        1       2.000000       2.020000

 Density error is 0.000000282127
                          Error Threshold = 0.000000006475

       Energy                       Rydberg                            eV
   E_KohnSham              -38.542453549631             -524.396983175311
     E_Harris              -38.542453557437             -524.396983281510
       E_band               -8.740049136823             -118.914469060770
   E_one_elec              -52.602778179346             -715.697513869174
    E_Hartree              +27.535922413326             +374.645444507140
         E_xc               -8.568628461578             -116.582171122437
      E_Ewald               -4.894904152326              -66.598587635495
      E_demet               -0.011869485182               -0.161492630797
      E_descf               -0.000195684525               -0.002662424548
     E_efield               +0.000000000000               +0.000000000000
      E_Fermi               -0.534216255356               -7.268385037070

 PW ALGORITHM --------------- ION=   1  ELEC=  13--------------------------------
  K-point    CG iter num      Time(Sec)
 Energy (eV) & Occupations  for spin=1 K-point=1
      1     -18.630493       2.000000
      2     -18.387482       2.000000
      3      -7.741698       1.999999
      4      -7.377855       1.743046
      5      -7.377855       1.743046
      6      -7.159745       0.256954
      7      -7.159745       0.256954
      8      -6.747674       0.000000
        1       2.000000       2.040000

 Density error is 0.000000017137
                          Error Threshold = 0.000000002821

       Energy                       Rydberg                            eV
   E_KohnSham              -38.542453537390             -524.396983008763
     E_Harris              -38.542453553147             -524.396983223141
       E_band               -8.740357251443             -118.918661175244
   E_one_elec              -52.602967176139             -715.700085302464
    E_Hartree              +27.535913950487             +374.645329364314
         E_xc               -8.568625722039             -116.582133849091
      E_Ewald               -4.894904152326              -66.598587635495
      E_demet               -0.011870437373               -0.161505586026
      E_descf               +0.000000000000               +0.000000000000
     E_efield               +0.000000000000               +0.000000000000
      E_Fermi               -0.534246728196               -7.268799641328
 convergence is achieved
 !FINAL_ETOT_IS -524.396983008763 eV

 STATE ENERGY(eV) AND OCCUPATIONS. 1/1 kpoint (Cartesian) = 0.00000 0.00000 0.00000 (47833 pws)
 [spin1_state]        1     -18.630493       2.000000
 [spin1_state]        2     -18.387482       2.000000
 [spin1_state]        3      -7.741698       1.999999
 [spin1_state]        4      -7.377855       1.743016
 [spin1_state]        5      -7.377855       1.743016
 [spin1_state]        6      -7.159745       0.256984
 [spin1_state]        7      -7.159745       0.256984
 [spin1_state]        8      -6.747674       0.000000



 ><><><><><><><><><><><><><><><><><><><><><><

    TOTAL-FORCE (Ry/Bohr)

 ><><><><><><><><><><><><><><><><><><><><><><

     atom              x              y              z
       N1              0              0      +0.079250
       N2              0              0      -0.079250


 ><><><><><><><><><><><><><><><><><><><><><><

    TOTAL-FORCE (eV/Angstrom)

 ><><><><><><><><><><><><><><><><><><><><><><

     atom              x              y              z
       N1              0              0      +2.037613
       N2              0              0      -2.037613
 largest force is 0, no movement is possible.
 it may converged, otherwise no movement of atom is allowed.
 end of geometry optimization
                                    istep = 1
                         update iteration = 0

 CARTESIAN COORDINATES ( UNIT = 20.000000 Bohr ).
         atom                   x                   y                   z mag
      tauc_N1      0.000000000000      0.000000000000      0.000000000000 0.000000000000
      tauc_N2      0.000000000000      0.000000000000      0.283459031667 0.000000000000

 DIRECT COORDINATES
         atom                   x                   y                   z mag
      taud_N1      0.000000000000      0.000000000000      0.000000000000 0.000000000000
      taud_N2      0.000000000000      0.000000000000      0.283459031667 0.000000000000


 ><><><><><><><><><><><><><><><><><><><><><><

 Overlap Data For Spillage Minimization

 ><><><><><><><><><><><><><><><><><><><><><><

 File name : INPUTs
                                   smooth = 1
                                    sigma = 0.100000000000
                                     ecut = 50.000000000000
                                     rcut = 6.000000000000
                                tolerence = 0.000000000001
                                    kmesh = 713
                                       dk = 0.010000000000
                                    rmesh = 605
                                       dr = 0.010000000000
                       number of k points = 1
                          number of bands = 8
                 number of local orbitals = 18
           number of eigenvalues of Jl(x) = 13
 --------------------------------------------------------
 Print the overlap matrixs Q and S for this kpoint
       ik     npw
        1   47833
 --------------------------------------------------------
 OUTPUT THE OVERLAP BETWEEN SPHERICAL BESSEL FUNCTIONS AND BLOCH WAVE FUNCTIONS
 Q = < J_mu, q | Psi_n, k > 

    ik   Type1   Atom1       L
     1       N       1       0
     1       N       1       1
     1       N       1       2
     1       N       2       0
     1       N       2       1
     1       N       2       2
 DONE : jlq3d_overlap Time : 52.598024129868 (SEC)

 OUTPUT THE OVERLAP BETWEEN SPHERICAL BESSEL FUNCTIONS
 S = < J_mu,q1 | J_nu,q2 >

    ik   Type1   Atom1      L1   Type2   Atom2      L2
     1       N       1       0       N       1       0
     1       N       1       0       N       1       1
     1       N       1       0       N       1       2
     1       N       1       1       N       1       0
     1       N       1       1       N       1       1
     1       N       1       1       N       1       2
     1       N       1       2       N       1       0
     1       N       1       2       N       1       1
     1       N       1       2       N       1       2
     1       N       1       0       N       2       0
     1       N       1       0       N       2       1
     1       N       1       0       N       2       2
     1       N       1       1       N       2       0
     1       N       1       1       N       2       1
     1       N       1       1       N       2       2
     1       N       1       2       N       2       0
     1       N       1       2       N       2       1
     1       N       1       2       N       2       2
     1       N       2       0       N       1       0
     1       N       2       0       N       1       1
     1       N       2       0       N       1       2
     1       N       2       1       N       1       0
     1       N       2       1       N       1       1
     1       N       2       1       N       1       2
     1       N       2       2       N       1       0
     1       N       2       2       N       1       1
     1       N       2       2       N       1       2
     1       N       2       0       N       2       0
     1       N       2       0       N       2       1
     1       N       2       0       N       2       2
     1       N       2       1       N       2       0
     1       N       2       1       N       2       1
     1       N       2       1       N       2       2
     1       N       2       2       N       2       0
     1       N       2       2       N       2       1
     1       N       2       2       N       2       2
 DONE : Sq_overlap Time : 90.117432117462 (SEC)


 ik=0 DONE : BASIS OVERLAP (Q and S) GENERATION. Time : 90.188951253891 (SEC)





 >>>>>>>>>>>>>>>>>>>>>>>>>>>>>>>>>>>>>>>>>>>>>>>>>>>>>>>>>>>>>>>>>>>>>>
 |                                                                    |
 | Post-processing of data:                                           |
 | DOS (density of states) and bands will be output here.             |
 | If atomic orbitals are used, Mulliken charge analysis can be done. |
 | Also the .bxsf file containing fermi surface information can be    |
 | done here.                                                         |
 |                                                                    |
 <<<<<<<<<<<<<<<<<<<<<<<<<<<<<<<<<<<<<<<<<<<<<<<<<<<<<<<<<<<<<<<<<<<<<<








  |CLASS_NAME---------|NAME---------------|TIME(Sec)-----|CALLS----|AVG------|PER%-------
  A             DC_Driv         divide_frag         10.560         1     10.56     11.71%
  B            PW_Basis              gen_pw          10.56         1     10.56     11.71%
  A             DC_Driv         solve_eachf          79.61         1     79.61     88.27%
  B            Run_Frag        frag_pw_line          79.61         1     79.61     88.27%
  E           potential            v_of_rho           2.34        14      0.17      2.59%
  C            wavefunc             wfcinit           0.77         1      0.77      0.86%
  G           Hamilt_PW            cinitcgg           9.54        14      0.68     10.58%
  H           Hamilt_PW               h_psi          27.02       333      0.08     29.96%
  I           Hamilt_PW          add_vuspsi           0.27       333      0.00      0.30%
  C                Ions         opt_ions_pw          39.45         1     39.45     43.74%
  D           electrons     self_consistent          38.99         1     38.99     43.23%
  E           electrons             c_bands          27.86        13      2.14     30.89%
  F              Hamilt               diago          27.64        13      2.13     30.64%
  G            Diago_CG                diag          18.79        13      1.45     20.83%
  E              Charge             mix_rho           2.51        13      0.19      2.78%
 ----------------------------------------------------------------------------------------

 CLASS_NAME---------|NAME---------------|MEMORY(MB)--------
                                         243.7392
         Charge_Pulay                Rrho        54.0000
         Charge_Pulay               dRrho        47.2500
         Charge_Pulay                drho        47.2500
              Use_FFT              porter        13.5000
               Charge                 rho         6.7500
               Charge            rho_save         6.7500
               Charge            rho_core         6.7500
            potential               vltot         6.7500
            potential                  vr         6.7500
            potential                 vrs         6.7500
            potential                vrs1         6.7500
            potential                vnew         6.7500
         Charge_Pulay           rho_save2         6.7500
             wavefunc                 evc         5.8390
             PW_Basis           struc_fac         5.8338
               Charge                rhog         2.9169
               Charge           rhog_save         2.9169
               Charge           rhog_core         2.9169
 ----------------------------------------------------------

 Start  Time  : Wed Sep 30 16:34:20 2015
 Finish Time  : Wed Sep 30 16:35:50 2015
 Total  Time  : 0 h 1 mins 30 secs 
