<PP_INFO>
Generated using ld1 code
Author: Stefano de Gironcoli    Generation date: before 1998
Info: Be LDA 2s2 VonBarth-Car, l=1 local
    0        The Pseudo was generated with a Non-Relativistic Calculation
  0.00000000000E+00    Local Potential cutoff radius
nl pn  l   occ               Rcut            Rcut US             E pseu
2S  0  0  2.00      0.00000000000      0.00000000000      0.00000000000
</PP_INFO>


<PP_HEADER>
   0                   Version Number
  Be                   Element
   NC                  Norm - Conserving pseudopotential
    T                  Nonlinear Core Correction
 SLA  PZ   NOGX NOGC   PZ   Exchange-Correlation functional
    2.00000000000      Z valence
    0.00000000000      Total energy
  0.0000000  0.0000000 Suggested cutoff for wfc and rho
    0                  Max angular momentum component
  153                  Number of points in mesh
    1    1             Number of Wavefunctions, Number of Projectors
 Wavefunctions         nl  l   occ
                       2S  0  2.00
</PP_HEADER>


<PP_MESH>
  <PP_R>
  4.57890972218E-03  4.87422402715E-03  5.18858446842E-03  5.52321941627E-03
  5.87943646400E-03  6.25862753749E-03  6.66227433409E-03  7.09195411243E-03
  7.54934585558E-03  8.03623683172E-03  8.55452957792E-03  9.10624933434E-03
  9.69355195793E-03  1.03187323464E-02  1.09842334059E-02  1.16926555960E-02
  1.24467670920E-02  1.32495146008E-02  1.41040348759E-02  1.50136669738E-02
  1.59819653017E-02  1.70127135063E-02  1.81099392586E-02  1.92779299921E-02
  2.05212496560E-02  2.18447565489E-02  2.32536223027E-02  2.47533520910E-02
  2.63498061405E-02  2.80492226301E-02  2.98582420667E-02  3.17839332330E-02
  3.38338208092E-02  3.60159147754E-02  3.83387417112E-02  4.08113781135E-02
  4.34434858626E-02  4.62453499768E-02  4.92279188010E-02  5.24028467878E-02
  5.57825400371E-02  5.93802047739E-02  6.32098989512E-02  6.72865871823E-02
  7.16261992150E-02  7.62456921778E-02  8.11631168396E-02  8.63976881442E-02
  9.19698602929E-02  9.79014066692E-02  1.04215504920E-01  1.10936827520E-01
  1.18091638185E-01  1.25707894493E-01  1.33815357130E-01  1.42445706183E-01
  1.51632664928E-01  1.61412131607E-01  1.71822319698E-01  1.82903907237E-01
  1.94700195768E-01  2.07257279545E-01  2.20624225646E-01  2.34853265703E-01
  2.50000000000E-01  2.66123614729E-01  2.83287113267E-01  3.01557562355E-01
  3.21006354172E-01  3.41709485293E-01  3.63747853655E-01  3.87207574659E-01
  4.12180317675E-01  4.38763664240E-01  4.67061489358E-01  4.97184367396E-01
  5.29250004153E-01  5.63383696803E-01  5.99718823492E-01  6.38397364516E-01
  6.79570457115E-01  7.23398986043E-01  7.70054212230E-01  8.19718441985E-01
  8.72585739365E-01  9.28862684485E-01  9.88769180730E-01  1.05253931404E+00
  1.12042226758E+00  1.19268329549E+00  1.26960475930E+00  1.35148723129E+00
  1.43865066900E+00  1.53143566547E+00  1.63020478008E+00  1.73534395530E+00
  1.84726402473E+00  1.96640231849E+00  2.09322437203E+00  2.22822574530E+00
  2.37193395909E+00  2.52491055637E+00  2.68775329652E+00  2.86109849108E+00
  3.04562349018E+00  3.24204932924E+00  3.45114354652E+00  3.67372318220E+00
  3.91065797105E+00  4.16287374090E+00  4.43135603037E+00  4.71715393982E+00
  5.02138423080E+00  5.34523568978E+00  5.68997377338E+00  6.05694555315E+00
  6.44758497930E+00  6.86341848387E+00  7.30607094531E+00  7.77727203774E+00
  8.27886298967E+00  8.81280377865E+00  9.38118078990E+00  9.98621496896E+00
  1.06302705000E+01  1.13158640441E+01  1.20456745728E+01  1.28225538366E+01
  1.36495375083E+01  1.45298570444E+01  1.54669523126E+01  1.64644850331E+01
  1.75263530867E+01  1.86567057458E+01  1.98599598881E+01  2.11408172552E+01
  2.25042828251E+01  2.39556843693E+01  2.55006932707E+01  2.71453466852E+01
  2.88960711318E+01  3.07597076043E+01  3.27435383027E+01  3.48553150886E+01
  3.71032897756E+01  3.94962463738E+01  4.20435354130E+01  4.47551104804E+01
  4.76415671147E+01  5.07141842077E+01  5.39849680777E+01  5.74666993835E+01
  6.11729830661E+01
  </PP_R>
  <PP_RAB>
  2.86181857636E-04  3.04639001697E-04  3.24286529277E-04  3.45201213517E-04
  3.67464779000E-04  3.91164221093E-04  4.16392145881E-04  4.43247132027E-04
  4.71834115974E-04  5.02264801982E-04  5.34658098620E-04  5.69140583396E-04
  6.05846997371E-04  6.44920771653E-04  6.86514587866E-04  7.30790974749E-04
  7.77922943248E-04  8.28094662552E-04  8.81502179747E-04  9.38354185864E-04
  9.98872831355E-04  1.06329459414E-03  1.13187120366E-03  1.20487062450E-03
  1.28257810350E-03  1.36529728430E-03  1.45335139392E-03  1.54708450568E-03
  1.64686288378E-03  1.75307641438E-03  1.86614012917E-03  1.98649582706E-03
  2.11461380057E-03  2.25099467346E-03  2.39617135695E-03  2.55071113209E-03
  2.71521786641E-03  2.89033437355E-03  3.07674492507E-03  3.27517792424E-03
  3.48640875232E-03  3.71126279837E-03  3.95061868445E-03  4.20541169889E-03
  4.47663745094E-03  4.76535576111E-03  5.07269480247E-03  5.39985550902E-03
  5.74811626830E-03  6.11883791682E-03  6.51346905748E-03  6.93355172002E-03
  7.38072738658E-03  7.85674340580E-03  8.36345982061E-03  8.90285663642E-03
  9.47704155801E-03  1.00882582254E-02  1.07388949811E-02  1.14314942023E-02
  1.21687622355E-02  1.29535799716E-02  1.37890141029E-02  1.46783291065E-02
  1.56250000000E-02  1.66327259206E-02  1.77054445792E-02  1.88473476472E-02
  2.00628971357E-02  2.13568428308E-02  2.27342408534E-02  2.42004734162E-02
  2.57612698547E-02  2.74227290150E-02  2.91913430849E-02  3.10740229622E-02
  3.30781252596E-02  3.52114810502E-02  3.74824264682E-02  3.98998352822E-02
  4.24731535697E-02  4.52124366277E-02  4.81283882643E-02  5.12324026240E-02
  5.45366087103E-02  5.80539177803E-02  6.17980737956E-02  6.57837071272E-02
  7.00263917240E-02  7.45427059682E-02  7.93502974559E-02  8.44679519553E-02
  8.99156668126E-02  9.57147290919E-02  1.01887798755E-01  1.08458997206E-01
  1.15454001546E-01  1.22900144905E-01  1.30826523252E-01  1.39264109081E-01
  1.48245872443E-01  1.57806909773E-01  1.67984581032E-01  1.78818655693E-01
  1.90351468136E-01  2.02628083078E-01  2.15696471657E-01  2.29607698887E-01
  2.44416123190E-01  2.60179608806E-01  2.76959751898E-01  2.94822121239E-01
  3.13836514425E-01  3.34077230611E-01  3.55623360836E-01  3.78559097072E-01
  4.02974061206E-01  4.28963655242E-01  4.56629434082E-01  4.86079502359E-01
  5.17428936855E-01  5.50800236165E-01  5.86323799369E-01  6.24138435560E-01
  6.64391906251E-01  7.07241502754E-01  7.52854660798E-01  8.01409614790E-01
  8.53096094268E-01  9.08116065273E-01  9.66684519537E-01  1.02903031457E+00
  1.09539706792E+00  1.16604410911E+00  1.24124749300E+00  1.32130107845E+00
  1.40651767657E+00  1.49723027308E+00  1.59379332942E+00  1.69658416782E+00
  1.80600444574E+00  1.92248172527E+00  2.04647114392E+00  2.17845719304E+00
  2.31895561098E+00  2.46851539836E+00  2.62772096331E+00  2.79719440503E+00
  2.97759794467E+00  3.16963651298E+00  3.37406050485E+00  3.59166871147E+00
  3.82331144163E+00
  </PP_RAB>
</PP_MESH>


<PP_NLCC>
  9.51525534387E-02  9.51524939596E-02  9.51524265553E-02  9.51523501688E-02
  9.51522636022E-02  9.51521654972E-02  9.51520543142E-02  9.51519283074E-02
  9.51517854974E-02  9.51516236396E-02  9.51514401884E-02  9.51512322567E-02
  9.51509965697E-02  9.51507294119E-02  9.51504265677E-02  9.51500832529E-02
  9.51496940371E-02  9.51492527550E-02  9.51487524050E-02  9.51481850338E-02
  9.51475416041E-02  9.51468118428E-02  9.51459840679E-02  9.51450449887E-02
  9.51439794765E-02  9.51427703012E-02  9.51413978260E-02  9.51398396556E-02
  9.51380702280E-02  9.51360603408E-02  9.51337765993E-02  9.51311807724E-02
  9.51282290389E-02  9.51248711020E-02  9.51210491467E-02  9.51166966073E-02
  9.51117367068E-02  9.51060807185E-02  9.50996258912E-02  9.50922529632E-02
  9.50838231744E-02  9.50741746623E-02  9.50631181002E-02  9.50504314043E-02
  9.50358532881E-02  9.50190753960E-02  9.49997326761E-02  9.49773915755E-02
  9.49515355367E-02  9.49215471546E-02  9.48866862013E-02  9.48460625457E-02
  9.47986027779E-02  9.47430090923E-02  9.46777086846E-02  9.46007915745E-02
  9.45099343908E-02  9.44023072449E-02  9.42744604131E-02  9.41221871761E-02
  9.39403588913E-02  9.37227283106E-02  9.34616974323E-02  9.31480470204E-02
  9.27706266141E-02  9.23160067760E-02  9.17680999869E-02  9.11077635828E-02
  9.03124081311E-02  8.93556483506E-02  8.82070516373E-02  8.68320616484E-02
  8.51922005881E-02  8.32456818558E-02  8.09485904553E-02  7.82568049020E-02
  7.51288303763E-02  7.15296734841E-02  6.74357957920E-02  6.28410175742E-02
  5.77629921644E-02  5.22495386206E-02  4.63837405877E-02  4.02863728233E-02
  3.41140391529E-02  2.80515764534E-02  2.22979785297E-02  1.70464128470E-02
  1.24607229639E-02  8.65269399376E-03  5.66555460070E-03  3.46883751559E-03
  1.96730372634E-03  1.02250723443E-03  4.81200508504E-04  2.02266097775E-04
  7.47746442911E-05  2.38911789608E-05  6.46835534807E-06  1.45115725374E-06
  2.63032708244E-07  3.74315600233E-08  4.04865705753E-09  3.20829868896E-10
  1.78673358627E-11  6.67111931036E-13  1.58309315294E-14  0.00000000000E+00
  0.00000000000E+00  0.00000000000E+00  0.00000000000E+00  0.00000000000E+00
  0.00000000000E+00  0.00000000000E+00  0.00000000000E+00  0.00000000000E+00
  0.00000000000E+00  0.00000000000E+00  0.00000000000E+00  0.00000000000E+00
  0.00000000000E+00  0.00000000000E+00  0.00000000000E+00  0.00000000000E+00
  0.00000000000E+00  0.00000000000E+00  0.00000000000E+00  0.00000000000E+00
  0.00000000000E+00  0.00000000000E+00  0.00000000000E+00  0.00000000000E+00
  0.00000000000E+00  0.00000000000E+00  0.00000000000E+00  0.00000000000E+00
  0.00000000000E+00  0.00000000000E+00  0.00000000000E+00  0.00000000000E+00
  0.00000000000E+00  0.00000000000E+00  0.00000000000E+00  0.00000000000E+00
  0.00000000000E+00  0.00000000000E+00  0.00000000000E+00  0.00000000000E+00
  0.00000000000E+00  0.00000000000E+00  0.00000000000E+00  0.00000000000E+00
  0.00000000000E+00
</PP_NLCC>


<PP_LOCAL>
 -7.90699626865E+00 -7.90698197142E+00 -7.90696577057E+00 -7.90694741266E+00
 -7.90692661049E+00 -7.90690303864E+00 -7.90687632834E+00 -7.90684606176E+00
 -7.90681176541E+00 -7.90677290281E+00 -7.90672886602E+00 -7.90667896620E+00
 -7.90662242280E+00 -7.90655835141E+00 -7.90648574986E+00 -7.90640348261E+00
 -7.90631026300E+00 -7.90620463313E+00 -7.90608494112E+00 -7.90594931526E+00
 -7.90579563483E+00 -7.90562149696E+00 -7.90542417917E+00 -7.90520059686E+00
 -7.90494725523E+00 -7.90466019482E+00 -7.90433492977E+00 -7.90396637805E+00
 -7.90354878228E+00 -7.90307562032E+00 -7.90253950382E+00 -7.90193206362E+00
 -7.90124381995E+00 -7.90046403558E+00 -7.89958054980E+00 -7.89857959060E+00
 -7.89744556236E+00 -7.89616080591E+00 -7.89470532749E+00 -7.89305649256E+00
 -7.89118868029E+00 -7.88907289371E+00 -7.88667632015E+00 -7.88396183597E+00
 -7.88088744895E+00 -7.87740567110E+00 -7.87346281383E+00 -7.86899819687E+00
 -7.86394326163E+00 -7.85822057882E+00 -7.85174273993E+00 -7.84441112129E+00
 -7.83611450963E+00 -7.82672757762E+00 -7.81610919868E+00 -7.80410059116E+00
 -7.79052328388E+00 -7.77517689773E+00 -7.75783674233E+00 -7.73825123273E+00
 -7.71613913906E+00 -7.69118669366E+00 -7.66304459449E+00 -7.63132496325E+00
 -7.59559834118E+00 -7.55539083727E+00 -7.51018158273E+00 -7.45940069468E+00
 -7.40242801054E+00 -7.33859292570E+00 -7.26717574875E+00 -7.18741108225E+00
 -7.09849383914E+00 -6.99958861135E+00 -6.88984320951E+00 -6.76840727814E+00
 -6.63445693817E+00 -6.48722639186E+00 -6.32604730404E+00 -6.15039650018E+00
 -5.95995203603E+00 -5.75465693000E+00 -5.53478874288E+00 -5.30103169356E+00
 -5.05454610876E+00 -4.79702779292E+00 -4.53074757201E+00 -4.25855918755E+00
 -3.98386249473E+00 -3.71050937671E+00 -3.44264291490E+00 -3.18446710703E+00
 -2.93995536150E+00 -2.71252074693E+00 -2.50468761904E+00 -2.31781886024E+00
 -2.15195974589E+00 -2.00585192208E+00 -1.87714459304E+00 -1.76278576468E+00
 -1.65952392401E+00 -1.56440816961E+00 -1.47516392328E+00 -1.39035523153E+00
 -1.30931678317E+00 -1.23191970378E+00 -1.15828529837E+00 -1.08855495394E+00
 -1.02277070993E+00 -9.60856718801E-01 -9.02654768532E-01 -8.47968411261E-01
 -7.96593033861E-01 -7.48329953096E-01 -7.02990937676E-01 -6.60398870161E-01
 -6.20387325307E-01 -5.82799957398E-01 -5.47489892987E-01 -5.14319157230E-01
 -4.83158134757E-01 -4.53885063195E-01 -4.26385557382E-01 -4.00552162399E-01
 -3.76283933696E-01 -3.53486042641E-01 -3.32069405979E-01 -3.11950337738E-01
 -2.93050222220E-01 -2.75295206814E-01 -2.58615913411E-01 -2.42947167309E-01
 -2.28227742544E-01 -2.14400122642E-01 -2.01410275879E-01 -1.89207444146E-01
 -1.77743944612E-01 -1.66974983404E-01 -1.56858480573E-01 -1.47354905663E-01
 -1.38427123250E-01 -1.30040247829E-01 -1.22161507502E-01 -1.14760115920E-01
 -1.07807151985E-01 -1.01275446840E-01 -9.51394777036E-02 -8.93752681440E-02
 -8.39602943869E-02 -7.88733973047E-02 -7.40946997365E-02 -6.96055288177E-02
 -6.53883430154E-02
</PP_LOCAL>


<PP_NONLOCAL>
  <PP_BETA>
    1    0             Beta    L
   125
  1.39995868884E-02  1.49024621044E-02  1.58635633569E-02  1.68866445103E-02
  1.79757027757E-02  1.91349922797E-02  2.03690395984E-02  2.16826649783E-02
  2.30809991974E-02  2.45695032229E-02  2.61539863507E-02  2.78406385764E-02
  2.96360413412E-02  3.15472039298E-02  3.35815839205E-02  3.57471231857E-02
  3.80522664289E-02  4.05060080729E-02  4.31179143994E-02  4.58981710271E-02
  4.88576126350E-02  5.20077706478E-02  5.53609129458E-02  5.89300926309E-02
  6.27291970489E-02  6.67730025533E-02  7.10772203957E-02  7.56585691971E-02
  8.05348220064E-02  8.57248847228E-02  9.12488522669E-02  9.71280890064E-02
  1.03385302454E-01  1.10044620599E-01  1.17131674409E-01  1.24673686753E-01
  1.32699558675E-01  1.41239966391E-01  1.50327446193E-01  1.59996508121E-01
  1.70283698612E-01  1.81227758389E-01  1.92869668374E-01  2.05252733338E-01
  2.18422728383E-01  2.32427912552E-01  2.47319152663E-01  2.63149914226E-01
  2.79976341692E-01  2.97857206357E-01  3.16853864037E-01  3.37030159912E-01
  3.58452239418E-01  3.81188299490E-01  4.05308135828E-01  4.30882650603E-01
  4.57983050463E-01  4.86679851194E-01  5.17041600420E-01  5.49133055372E-01
  5.83012921613E-01  6.18730973995E-01  6.56324252795E-01  6.95812233016E-01
  7.37190818305E-01  7.80424572828E-01  8.25437199496E-01  8.72099589208E-01
  9.20215331227E-01  9.69503058353E-01  1.01957556070E+00  1.06991557933E+00
  1.11984856016E+00  1.16851321951E+00  1.21483248404E+00  1.25748667522E+00
  1.29489522366E+00  1.32521427080E+00  1.34635788313E+00  1.35605688243E+00
  1.35196642253E+00  1.33183301216E+00  1.29372769753E+00  1.23633734705E+00
  1.15929157398E+00  1.06347640373E+00  9.51266749042E-01  8.26592230328E-01
  6.94762334523E-01  5.62013173267E-01  4.34810011014E-01  3.19023908308E-01
  2.19166791394E-01  1.37878589704E-01  7.57924298900E-02  3.17787708482E-02
  3.44396160103E-03 -1.23009781325E-02 -1.87506802031E-02 -1.90488493005E-02
 -1.59374648162E-02 -1.15717334027E-02 -7.40474833382E-03 -4.18313358666E-03
 -2.07589714700E-03 -8.96711340888E-04 -3.33031931576E-04 -1.04735122425E-04
 -2.73907122364E-05 -5.83219479722E-06 -9.86669150707E-07 -1.28961636956E-07
 -1.26129716332E-08 -8.90107414922E-10 -4.34896269532E-11 -1.40370968865E-12
 -2.83805436898E-14 -3.35316223565E-16  0.00000000000E+00  0.00000000000E+00
  0.00000000000E+00  0.00000000000E+00  0.00000000000E+00  0.00000000000E+00
  0.00000000000E+00
  </PP_BETA>
  <PP_DIJ>
    1                  Number of nonzero Dij
    1    1  3.37784826669E+00
  </PP_DIJ>
</PP_NONLOCAL>


<PP_PSWFC>
2S    0  2.00          Wavefunction
  9.76536940000E-04  1.03952190000E-03  1.10656980000E-03  1.17794280000E-03
  1.25392010000E-03  1.33479890000E-03  1.42089550000E-03  1.51254680000E-03
  1.61011150000E-03  1.71397150000E-03  1.82453320000E-03  1.94222980000E-03
  2.06752210000E-03  2.20090110000E-03  2.34288950000E-03  2.49404430000E-03
  2.65495820000E-03  2.82626300000E-03  3.00863130000E-03  3.20278000000E-03
  3.40947260000E-03  3.62952280000E-03  3.86379760000E-03  4.11322110000E-03
  4.37877840000E-03  4.66152000000E-03  4.96256570000E-03  5.28311050000E-03
  5.62442890000E-03  5.98788160000E-03  6.37492090000E-03  6.78709810000E-03
  7.22607080000E-03  7.69361090000E-03  8.19161350000E-03  8.72210690000E-03
  9.28726320000E-03  9.88941060000E-03  1.05310460000E-02  1.12148510000E-02
  1.19437060000E-02  1.27207130000E-02  1.35492130000E-02  1.44328090000E-02
  1.53753970000E-02  1.63811920000E-02  1.74547670000E-02  1.86010890000E-02
  1.98255690000E-02  2.11341120000E-02  2.25331790000E-02  2.40298590000E-02
  2.56319510000E-02  2.73480620000E-02  2.91877150000E-02  3.11614840000E-02
  3.32811430000E-02  3.55598450000E-02  3.80123340000E-02  4.06551820000E-02
  4.35070720000E-02  4.65891300000E-02  4.99253020000E-02  5.35427900000E-02
  5.74725610000E-02  6.17499120000E-02  6.64151210000E-02  7.15141610000E-02
  7.70994940000E-02  8.32309110000E-02  8.99764090000E-02  9.74130610000E-02
  1.05627810000E-01  1.14718080000E-01  1.24792130000E-01  1.35968830000E-01
  1.48376720000E-01  1.62152060000E-01  1.77435270000E-01  1.94365570000E-01
  2.13073210000E-01  2.33668820000E-01  2.56229860000E-01  2.80783990000E-01
  3.07290270000E-01  3.35619170000E-01  3.65534000000E-01  3.96676210000E-01
  4.28558400000E-01  4.60567950000E-01  4.91983660000E-01  5.22005740000E-01
  5.49796880000E-01  5.74529760000E-01  5.95434510000E-01  6.11839560000E-01
  6.23201200000E-01  6.29120520000E-01  6.29349850000E-01  6.23792630000E-01
  6.12500150000E-01  5.95667180000E-01  5.73626070000E-01  5.46838330000E-01
  5.15882510000E-01  4.81438030000E-01  4.44264940000E-01  4.05180200000E-01
  3.65030850000E-01  3.24665000000E-01  2.84901540000E-01  2.46500050000E-01
  2.10132630000E-01  1.76359450000E-01  1.45610110000E-01  1.18172320000E-01
  9.41890980000E-02  7.36648790000E-02  5.64798560000E-02  4.24111810000E-02
  3.11587990000E-02  2.23733220000E-02  1.56832960000E-02  1.07195350000E-02
  7.13481500000E-03  4.61796040000E-03  2.90215600000E-03  1.76798570000E-03
  1.04216710000E-03  5.93203720000E-04  3.25247220000E-04  1.71517030000E-04
  8.67892340000E-05  4.20268900000E-05  1.94201210000E-05  8.53723210000E-06
  3.55885180000E-06  1.40190910000E-06  5.19911880000E-07  1.80802860000E-07
  5.87060740000E-08  1.77158500000E-08  4.94516690000E-09  1.27514730000E-09
  3.25182340000E-10  7.57816520000E-11  1.60452650000E-11  3.06752370000E-12
  5.26049120000E-13  8.03557160000E-14  1.08521990000E-14  1.28551930000E-15
  1.32442140000E-16
</PP_PSWFC>


<PP_RHOATOM>
  1.90724879037E-06  2.16121156116E-06  2.44899344454E-06  2.77509848014E-06
  3.14463123437E-06  3.56337620688E-06  4.03788804384E-06  4.57559564438E-06
  5.18491808486E-06  5.87539660562E-06  6.65784279580E-06  7.54451319202E-06
  8.54929526798E-06  9.68793130396E-06  1.09782624184E-05  1.24405139407E-05
  1.40976060875E-05  1.59755250903E-05  1.81037245987E-05  2.05155994568E-05
  2.32490068203E-05  2.63468715114E-05  2.98578637875E-05  3.38371756350E-05
  3.83474005526E-05  4.34595374208E-05  4.92541166536E-05  5.58225131104E-05
  6.32684009023E-05  7.17094521112E-05  8.12792329625E-05  9.21294012380E-05
  1.04432198413E-04  1.18383297361E-04  1.34205063467E-04  1.52150297550E-04
  1.72506515492E-04  1.95600884031E-04  2.21805859708E-04  2.51545765904E-04
  2.85304226029E-04  3.23633078457E-04  3.67162345839E-04  4.16611951261E-04
  4.72805665815E-04  5.36686902682E-04  6.09337782049E-04  6.92001023972E-04
  7.86106372348E-04  8.93301380057E-04  1.01548831169E-03  1.15486824712E-03
  1.31399382413E-03  1.49583299031E-03  1.70384541384E-03  1.94207617016E-03
  2.21526895877E-03  2.52900515285E-03  2.88987507226E-03  3.30568764691E-03
  3.78573062803E-03  4.34109406831E-03  4.98507155958E-03  5.73366072197E-03
  6.60619053580E-03  7.62610326402E-03  8.82193659489E-03  1.02285504471E-02
  1.18886639501E-02  1.38547690918E-02  1.61915083531E-02  1.89786089068E-02
  2.23144684908E-02  2.63204757578E-02  3.11461514199E-02  3.69750454631E-02
  4.40313020759E-02  5.25865811245E-02  6.29665500799E-02  7.55559496028E-02
  9.08003856394E-02  1.09202234880E-01  1.31307482311E-01  1.57679298081E-01
  1.88854620073E-01  2.25280454543E-01  2.67230210312E-01  3.14704031160E-01
  3.67324604421E-01  4.24245673134E-01  4.84095843414E-01  5.44979985186E-01
  6.04553218515E-01  6.60168890251E-01  7.09084511398E-01  7.48695294362E-01
  7.76759471363E-01  7.91585257370E-01  7.92162467390E-01  7.78234490485E-01
  7.50312867500E-01  7.09638778658E-01  6.58093736367E-01  5.98064318314E-01
  5.32269528248E-01  4.63565153461E-01  3.94742673826E-01  3.28341988944E-01
  2.66495042903E-01  2.10814724450E-01  1.62337774989E-01  1.21524549300E-01
  8.83114443814E-02  6.22053112086E-02  4.24046082684E-02  2.79293944284E-02
  1.77431723641E-02  1.08530287962E-02  6.37994826756E-03  3.59741654763E-03
  1.94174151024E-03  1.00113107463E-03  4.91931546847E-04  2.29816861232E-04
  1.01811170168E-04  4.26511165119E-05  1.68450188967E-05  6.25154687081E-06
  2.17222452864E-06  7.03781306844E-07  2.11571508235E-07  5.88361831600E-08
  1.50647422766E-08  3.53251896614E-09  7.54282199309E-10  1.45768663859E-10
  2.53308522687E-11  3.93069824933E-12  5.40616725930E-13  6.53793483684E-14
  6.89280624899E-15  6.27702682445E-16  4.89093513377E-17  3.25200127339E-18
  2.11487108496E-19  1.14857175597E-20  5.14901057840E-22  1.88194033001E-23
  5.53455353306E-25  1.29140821877E-26  2.35540446271E-28  3.30511974134E-30
  3.50818408956E-32
</PP_RHOATOM>
