<PP_INFO>
Generated using ld1 code (maybe, or maybe not)                                  
Author: unknown    Generation date: as well                                     
Info: automatically converted from PWSCF format                                 
    0        The Pseudo was generated with a Non-Relativistic Calculation
nl pn  l   occ               Rcut            Rcut US             E pseu
*S  0  0  1.00      0.00000000000      0.00000000000      0.00000000000
</PP_INFO>


<PP_HEADER>
   0                   Version Number
  H                    Element
   NC                  Norm - Conserving pseudopotential
    F                  Nonlinear Core Correction
SLA  PW   PBE  PBE     PBE  Exchange-Correlation functional
    1.00000000000      Z valence
    0.00000000000      Total energy
  0.0000000  0.0000000 Suggested cutoff for wfc and rho
   -1                  Max angular momentum component
 1076                  Number of points in mesh
    1    0             Number of Wavefunctions, Number of Projectors
 Wavefunctions         nl  l   occ
                       *S  0  1.00
</PP_HEADER>


<PP_MESH>
  <PP_R>
  1.00000037198E-04  1.01308524420E-04  1.02634133025E-04  1.03977087042E-04
  1.05337613434E-04  1.06715942134E-04  1.08112306082E-04  1.09526941267E-04
  1.10960086766E-04  1.12411984784E-04  1.13882880694E-04  1.15373023083E-04
  1.16882663787E-04  1.18412057939E-04  1.19961464011E-04  1.21531143856E-04
  1.23121362753E-04  1.24732389454E-04  1.26364496225E-04  1.28017958897E-04
  1.29693056909E-04  1.31390073356E-04  1.33109295039E-04  1.34851012509E-04
  1.36615520121E-04  1.38403116081E-04  1.40214102497E-04  1.42048785430E-04
  1.43907474946E-04  1.45790485168E-04  1.47698134328E-04  1.49630744825E-04
  1.51588643274E-04  1.53572160565E-04  1.55581631916E-04  1.57617396933E-04
  1.59679799666E-04  1.61769188664E-04  1.63885917041E-04  1.66030342528E-04
  1.68202827537E-04  1.70403739225E-04  1.72633449551E-04  1.74892335340E-04
  1.77180778350E-04  1.79499165333E-04  1.81847888103E-04  1.84227343598E-04
  1.86637933954E-04  1.89080066564E-04  1.91554154155E-04  1.94060614854E-04
  1.96599872259E-04  1.99172355511E-04  2.01778499364E-04  2.04418744265E-04
  2.07093536419E-04  2.09803327874E-04  2.12548576591E-04  2.15329746524E-04
  2.18147307695E-04  2.21001736282E-04  2.23893514687E-04  2.26823131629E-04
  2.29791082221E-04  2.32797868052E-04  2.35843997277E-04  2.38929984699E-04
  2.42056351857E-04  2.45223627115E-04  2.48432345749E-04  2.51683050041E-04
  2.54976289368E-04  2.58312620294E-04  2.61692606668E-04  2.65116819715E-04
  2.68585838136E-04  2.72100248203E-04  2.75660643859E-04  2.79267626820E-04
  2.82921806675E-04  2.86623800989E-04  2.90374235407E-04  2.94173743762E-04
  2.98022968180E-04  3.01922559189E-04  3.05873175829E-04  3.09875485763E-04
  3.13930165392E-04  3.18037899967E-04  3.22199383703E-04  3.26415319902E-04
  3.30686421068E-04  3.35013409025E-04  3.39397015046E-04  3.43837979970E-04
  3.48337054331E-04  3.52894998484E-04  3.57512582731E-04  3.62190587455E-04
  3.66929803251E-04  3.71731031057E-04  3.76595082292E-04  3.81522778992E-04
  3.86514953950E-04  3.91572450855E-04  3.96696124436E-04  4.01886840606E-04
  4.07145476609E-04  4.12472921167E-04  4.17870074630E-04  4.23337849130E-04
  4.28877168734E-04  4.34488969601E-04  4.40174200138E-04  4.45933821162E-04
  4.51768806063E-04  4.57680140967E-04  4.63668824905E-04  4.69735869978E-04
  4.75882301531E-04  4.82109158325E-04  4.88417492715E-04  4.94808370823E-04
  5.01282872724E-04  5.07842092623E-04  5.14487139045E-04  5.21219135018E-04
  5.28039218265E-04  5.34948541396E-04  5.41948272105E-04  5.49039593361E-04
  5.56223703616E-04  5.63501817000E-04  5.70875163532E-04  5.78344989326E-04
  5.85912556800E-04  5.93579144890E-04  6.01346049268E-04  6.09214582560E-04
  6.17186074567E-04  6.25261872489E-04  6.33443341156E-04  6.41731863254E-04
  6.50128839566E-04  6.58635689198E-04  6.67253849830E-04  6.75984777950E-04
  6.84829949107E-04  6.93790858155E-04  7.02869019509E-04  7.12065967401E-04
  7.21383256136E-04  7.30822460358E-04  7.40385175315E-04  7.50073017130E-04
  7.59887623069E-04  7.69830651825E-04  7.79903783794E-04  7.90108721358E-04
  8.00447189177E-04  8.10920934476E-04  8.21531727343E-04  8.32281361027E-04
  8.43171652242E-04  8.54204441473E-04  8.65381593288E-04  8.76704996652E-04
  8.88176565247E-04  8.99798237795E-04  9.11571978387E-04  9.23499776813E-04
  9.35583648900E-04  9.47825636849E-04  9.60227809588E-04  9.72792263111E-04
  9.85521120843E-04  9.98416533989E-04  1.01148068191E-03  1.02471577247E-03
  1.03812404243E-03  1.05170775783E-03  1.06546921434E-03  1.07941073769E-03
  1.09353468402E-03  1.10784344031E-03  1.12233942478E-03  1.13702508729E-03
  1.15190290974E-03  1.16697540653E-03  1.18224512493E-03  1.19771464558E-03
  1.21338658285E-03  1.22926358534E-03  1.24534833631E-03  1.26164355410E-03
  1.27815199267E-03  1.29487644196E-03  1.31181972845E-03  1.32898471559E-03
  1.34637430432E-03  1.36399143351E-03  1.38183908050E-03  1.39992026158E-03
  1.41823803251E-03  1.43679548905E-03  1.45559576745E-03  1.47464204500E-03
  1.49393754056E-03  1.51348551512E-03  1.53328927234E-03  1.55335215909E-03
  1.57367756606E-03  1.59426892827E-03  1.61512972574E-03  1.63626348397E-03
  1.65767377462E-03  1.67936421609E-03  1.70133847410E-03  1.72360026237E-03
  1.74615334319E-03  1.76900152807E-03  1.79214867842E-03  1.81559870617E-03
  1.83935557442E-03  1.86342329814E-03  1.88780594483E-03  1.91250763522E-03
  1.93753254395E-03  1.96288490029E-03  1.98856898886E-03  2.01458915031E-03
  2.04094978213E-03  2.06765533932E-03  2.09471033518E-03  2.12211934207E-03
  2.14988699218E-03  2.17801797831E-03  2.20651705467E-03  2.23538903765E-03
  2.26463880671E-03  2.29427130511E-03  2.32429154083E-03  2.35470458734E-03
  2.38551558454E-03  2.41672973955E-03  2.44835232764E-03  2.48038869309E-03
  2.51284425014E-03  2.54572448385E-03  2.57903495106E-03  2.61278128131E-03
  2.64696917782E-03  2.68160441841E-03  2.71669285654E-03  2.75224042222E-03
  2.78825312309E-03  2.82473704537E-03  2.86169835494E-03  2.89914329834E-03
  2.93707820385E-03  2.97550948257E-03  3.01444362948E-03  3.05388722454E-03
  3.09384693380E-03  3.13432951056E-03  3.17534179647E-03  3.21689072270E-03
  3.25898331112E-03  3.30162667547E-03  3.34482802259E-03  3.38859465361E-03
  3.43293396519E-03  3.47785345078E-03  3.52336070188E-03  3.56946340932E-03
  3.61616936458E-03  3.66348646106E-03  3.71142269548E-03  3.75998616917E-03
  3.80918508947E-03  3.85902777111E-03  3.90952263763E-03  3.96067822279E-03
  4.01250317199E-03  4.06500624377E-03  4.11819631129E-03  4.17208236378E-03
  4.22667350813E-03  4.28197897036E-03  4.33800809722E-03  4.39477035778E-03
  4.45227534499E-03  4.51053277733E-03  4.56955250044E-03  4.62934448880E-03
  4.68991884740E-03  4.75128581345E-03  4.81345575810E-03  4.87643918824E-03
  4.94024674821E-03  5.00488922163E-03  5.07037753325E-03  5.13672275073E-03
  5.20393608659E-03  5.27202890003E-03  5.34101269891E-03  5.41089914164E-03
  5.48170003921E-03  5.55342735712E-03  5.62609321749E-03  5.69970990099E-03
  5.77428984903E-03  5.84984566581E-03  5.92639012042E-03  6.00393614907E-03
  6.08249685721E-03  6.16208552181E-03  6.24271559352E-03  6.32440069903E-03
  6.40715464330E-03  6.49099141196E-03  6.57592517362E-03  6.66197028229E-03
  6.74914127979E-03  6.83745289822E-03  6.92692006248E-03  7.01755789271E-03
  7.10938170692E-03  7.20240702357E-03  7.29664956414E-03  7.39212525586E-03
  7.48885023434E-03  7.58684084633E-03  7.68611365249E-03  7.78668543014E-03
  7.88857317617E-03  7.99179410984E-03  8.09636567573E-03  8.20230554670E-03
  8.30963162682E-03  8.41836205446E-03  8.52851520533E-03  8.64010969557E-03
  8.75316438491E-03  8.86769837987E-03  8.98373103696E-03  9.10128196597E-03
  9.22037103330E-03  9.34101836528E-03  9.46324435159E-03  9.58706964873E-03
  9.71251518345E-03  9.83960215636E-03  9.96835204544E-03  1.00987866098E-02
  1.02309278930E-02  1.03647982275E-02  1.05004202375E-02  1.06378168435E-02
  1.07770112659E-02  1.09180270289E-02  1.10608879644E-02  1.12056182163E-02
  1.13522422443E-02  1.15007848283E-02  1.16512710723E-02  1.18037264089E-02
  1.19581766033E-02  1.21146477580E-02  1.22731663171E-02  1.24337590704E-02
  1.25964531586E-02  1.27612760774E-02  1.29282556822E-02  1.30974201930E-02
  1.32687981990E-02  1.34424186634E-02  1.36183109287E-02  1.37965047208E-02
  1.39770301551E-02  1.41599177408E-02  1.43451983862E-02  1.45329034044E-02
  1.47230645178E-02  1.49157138641E-02  1.51108840016E-02  1.53086079145E-02
  1.55089190185E-02  1.57118511667E-02  1.59174386552E-02  1.61257162287E-02
  1.63367190867E-02  1.65504828890E-02  1.67670437624E-02  1.69864383060E-02
  1.72087035982E-02  1.74338772022E-02  1.76619971729E-02  1.78931020633E-02
  1.81272309304E-02  1.83644233427E-02  1.86047193863E-02  1.88481596718E-02
  1.90947853410E-02  1.93446380745E-02  1.95977600978E-02  1.98541941892E-02
  2.01139836867E-02  2.03771724954E-02  2.06438050946E-02  2.09139265461E-02
  2.11875825009E-02  2.14648192076E-02  2.17456835199E-02  2.20302229044E-02
  2.23184854490E-02  2.26105198707E-02  2.29063755242E-02  2.32061024096E-02
  2.35097511816E-02  2.38173731575E-02  2.41290203261E-02  2.44447453566E-02
  2.47646016072E-02  2.50886431345E-02  2.54169247021E-02  2.57495017905E-02
  2.60864306060E-02  2.64277680904E-02  2.67735719305E-02  2.71239005680E-02
  2.74788132092E-02  2.78383698352E-02  2.82026312120E-02  2.85716589006E-02
  2.89455152676E-02  2.93242634955E-02  2.97079675938E-02  3.00966924093E-02
  3.04905036374E-02  3.08894678333E-02  3.12936524227E-02  3.17031257138E-02
  3.21179569087E-02  3.25382161147E-02  3.29639743567E-02  3.33953035888E-02
  3.38322767067E-02  3.42749675599E-02  3.47234509642E-02  3.51778027143E-02
  3.56380995968E-02  3.61044194030E-02  3.65768409420E-02  3.70554440542E-02
  3.75403096246E-02  3.80315195967E-02  3.85291569861E-02  3.90333058947E-02
  3.95440515250E-02  4.00614801940E-02  4.05856793486E-02  4.11167375796E-02
  4.16547446371E-02  4.21997914456E-02  4.27519701193E-02  4.33113739776E-02
  4.38780975613E-02  4.44522366479E-02  4.50338882683E-02  4.56231507230E-02
  4.62201235987E-02  4.68249077854E-02  4.74376054929E-02  4.80583202686E-02
  4.86871570149E-02  4.93242220065E-02  4.99696229091E-02  5.06234687969E-02
  5.12858701714E-02  5.19569389800E-02  5.26367886350E-02  5.33255340325E-02
  5.40232915722E-02  5.47301791768E-02  5.54463163119E-02  5.61718240064E-02
  5.69068248729E-02  5.76514431283E-02  5.84058046147E-02  5.91700368211E-02
  5.99442689046E-02  6.07286317122E-02  6.15232578031E-02  6.23282814710E-02
  6.31438387668E-02  6.39700675217E-02  6.48071073702E-02  6.56550997741E-02
  6.65141880461E-02  6.73845173743E-02  6.82662348462E-02  6.91594894743E-02
  7.00644322208E-02  7.09812160230E-02  7.19099958197E-02  7.28509285769E-02
  7.38041733143E-02  7.47698911327E-02  7.57482452407E-02  7.67394009824E-02
  7.77435258656E-02  7.87607895896E-02  7.97913640745E-02  8.08354234899E-02
  8.18931442842E-02  8.29647052149E-02  8.40502873782E-02  8.51500742401E-02
  8.62642516672E-02  8.73930079581E-02  8.85365338754E-02  8.96950226777E-02
  9.08686701523E-02  9.20576746484E-02  9.32622371106E-02  9.44825611129E-02
  9.57188528928E-02  9.69713213868E-02  9.82401782648E-02  9.95256379668E-02
  1.00827917739E-01  1.02147237668E-01  1.03483820724E-01  1.04837892792E-01
  1.06209682714E-01  1.07599422325E-01  1.09007346494E-01  1.10433693164E-01
  1.11878703391E-01  1.13342621385E-01  1.14825694552E-01  1.16328173535E-01
  1.17850312256E-01  1.19392367960E-01  1.20954601258E-01  1.22537276173E-01
  1.24140660178E-01  1.25765024250E-01  1.27410642911E-01  1.29077794274E-01
  1.30766760091E-01  1.32477825802E-01  1.34211280581E-01  1.35967417385E-01
  1.37746533007E-01  1.39548928121E-01  1.41374907335E-01  1.43224779246E-01
  1.45098856485E-01  1.46997455776E-01  1.48920897987E-01  1.50869508184E-01
  1.52843615687E-01  1.54843554126E-01  1.56869661493E-01  1.58922280206E-01
  1.61001757163E-01  1.63108443800E-01  1.65242696153E-01  1.67404874914E-01
  1.69595345498E-01  1.71814478098E-01  1.74062647755E-01  1.76340234413E-01
  1.78647622991E-01  1.80985203441E-01  1.83353370823E-01  1.85752525360E-01
  1.88183072516E-01  1.90645423059E-01  1.93139993133E-01  1.95667204325E-01
  1.98227483740E-01  2.00821264072E-01  2.03448983675E-01  2.06111086641E-01
  2.08808022871E-01  2.11540248154E-01  2.14308224242E-01  2.17112418931E-01
  2.19953306135E-01  2.22831365971E-01  2.25747084838E-01  2.28700955500E-01
  2.31693477168E-01  2.34725155585E-01  2.37796503111E-01  2.40908038813E-01
  2.44060288547E-01  2.47253785050E-01  2.50489068032E-01  2.53766684262E-01
  2.57087187666E-01  2.60451139417E-01  2.63859108030E-01  2.67311669460E-01
  2.70809407199E-01  2.74352912372E-01  2.77942783840E-01  2.81579628300E-01
  2.85264060387E-01  2.88996702780E-01  2.92778186303E-01  2.96609150037E-01
  3.00490241423E-01  3.04422116375E-01  3.08405439389E-01  3.12440883657E-01
  3.16529131177E-01  3.20670872874E-01  3.24866808712E-01  3.29117647813E-01
  3.33424108581E-01  3.37786918816E-01  3.42206815845E-01  3.46684546640E-01
  3.51220867948E-01  3.55816546419E-01  3.60472358733E-01  3.65189091734E-01
  3.69967542561E-01  3.74808518783E-01  3.79712838536E-01  3.84681330663E-01
  3.89714834851E-01  3.94814201773E-01  3.99980293235E-01  4.05213982319E-01
  4.10516153530E-01  4.15887702948E-01  4.21329538377E-01  4.26842579502E-01
  4.32427758038E-01  4.38086017895E-01  4.43818315331E-01  4.49625619119E-01
  4.55508910707E-01  4.61469184384E-01  4.67507447453E-01  4.73624720392E-01
  4.79822037037E-01  4.86100444748E-01  4.92461004591E-01  4.98904791516E-01
  5.05432894538E-01  5.12046416923E-01  5.18746476370E-01  5.25534205207E-01
  5.32410750575E-01  5.39377274627E-01  5.46434954722E-01  5.53584983626E-01
  5.60828569709E-01  5.68166937155E-01  5.75601326166E-01  5.83132993171E-01
  5.90763211040E-01  5.98493269297E-01  6.06324474342E-01  6.14258149666E-01
  6.22295636079E-01  6.30438291935E-01  6.38687493364E-01  6.47044634499E-01
  6.55511127717E-01  6.64088403876E-01  6.72777912556E-01  6.81581122305E-01
  6.90499520885E-01  6.99534615528E-01  7.08687933185E-01  7.17961020791E-01
  7.27355445517E-01  7.36872795045E-01  7.46514677829E-01  7.56282723371E-01
  7.66178582493E-01  7.76203927619E-01  7.86360453056E-01  7.96649875281E-01
  8.07073933231E-01  8.17634388597E-01  8.28333026121E-01  8.39171653897E-01
  8.50152103681E-01  8.61276231193E-01  8.72545916438E-01  8.83963064020E-01
  8.95529603464E-01  9.07247489542E-01  9.19118702605E-01  9.31145248917E-01
  9.43329160991E-01  9.55672497940E-01  9.68177345815E-01  9.80845817965E-01
  9.93680055394E-01  1.00668222712E+00  1.01985453053E+00  1.03319919179E+00
  1.04671846617E+00  1.06041463846E+00  1.07429002335E+00  1.08834696582E+00
  1.10258784151E+00  1.11701505716E+00  1.13163105103E+00  1.14643829323E+00
  1.16143928623E+00  1.17663656524E+00  1.19203269863E+00  1.20763028838E+00
  1.22343197052E+00  1.23944041558E+00  1.25565832902E+00  1.27208845170E+00
  1.28873356036E+00  1.30559646806E+00  1.32268002467E+00  1.33998711735E+00
  1.35752067105E+00  1.37528364896E+00  1.39327905309E+00  1.41150992470E+00
  1.42997934484E+00  1.44869043489E+00  1.46764635708E+00  1.48685031499E+00
  1.50630555415E+00  1.52601536253E+00  1.54598307114E+00  1.56621205456E+00
  1.58670573155E+00  1.60746756559E+00  1.62850106547E+00  1.64980978591E+00
  1.67139732813E+00  1.69326734047E+00  1.71542351903E+00  1.73786960824E+00
  1.76060940155E+00  1.78364674204E+00  1.80698552308E+00  1.83062968897E+00
  1.85458323563E+00  1.87885021128E+00  1.90343471708E+00  1.92834090788E+00
  1.95357299289E+00  1.97913523638E+00  2.00503195843E+00  2.03126753566E+00
  2.05784640194E+00  2.08477304915E+00  2.11205202798E+00  2.13968794862E+00
  2.16768548162E+00  2.19604935863E+00  2.22478437320E+00  2.25389538163E+00
  2.28338730374E+00  2.31326512374E+00  2.34353389105E+00  2.37419872117E+00
  2.40526479652E+00  2.43673736735E+00  2.46862175259E+00  2.50092334078E+00
  2.53364759098E+00  2.56680003364E+00  2.60038627162E+00  2.63441198107E+00
  2.66888291241E+00  2.70380489132E+00  2.73918381969E+00  2.77502567664E+00
  2.81133651954E+00  2.84812248500E+00  2.88538978994E+00  2.92314473263E+00
  2.96139369373E+00  3.00014313741E+00  3.03939961242E+00  3.07916975321E+00
  3.11946028100E+00  3.16027800502E+00  3.20162982353E+00  3.24352272511E+00
  3.28596378974E+00  3.32896019008E+00  3.37251919262E+00  3.41664815892E+00
  3.46135454689E+00  3.50664591203E+00  3.55252990866E+00  3.59901429131E+00
  3.64610691594E+00  3.69381574131E+00  3.74214883034E+00  3.79111435142E+00
  3.84072057986E+00  3.89097589921E+00  3.94188880275E+00  3.99346789488E+00
  4.04572189259E+00  4.09865962693E+00  4.15229004450E+00  4.20662220898E+00
  4.26166530261E+00  4.31742862783E+00  4.37392160876E+00  4.43115379285E+00
  4.48913485248E+00  4.54787458659E+00  4.60738292232E+00  4.66766991674E+00
  4.72874575848E+00  4.79062076951E+00  4.85330540685E+00  4.91681026435E+00
  4.98114607449E+00  5.04632371018E+00  5.11235418658E+00  5.17924866301E+00
  5.24701844479E+00  5.31567498517E+00  5.38522988728E+00  5.45569490606E+00
  5.52708195026E+00  5.59940308447E+00  5.67267053112E+00  5.74689667260E+00
  5.82209405329E+00  5.89827538173E+00  5.97545353275E+00  6.05364154964E+00
  6.13285264636E+00  6.21310020978E+00  6.29439780192E+00  6.37675916226E+00
  6.46019821009E+00  6.54472904679E+00  6.63036595827E+00  6.71712341738E+00
  6.80501608634E+00  6.89405881921E+00  6.98426666443E+00  7.07565486734E+00
  7.16823887276E+00  7.26203432761E+00  7.35705708355E+00  7.45332319965E+00
  7.55084894511E+00  7.64965080201E+00  7.74974546810E+00  7.85114985962E+00
  7.95388111416E+00  8.05795659353E+00  8.16339388675E+00  8.27021081296E+00
  8.37842542449E+00  8.48805600985E+00  8.59912109688E+00  8.71163945585E+00
  8.82563010261E+00  8.94111230187E+00  9.05810557039E+00  9.17662968031E+00
  9.29670466249E+00  9.41835080988E+00  9.54158868098E+00  9.66643910327E+00
  9.79292317678E+00  9.92106227761E+00  1.00508780616E+01  1.01823924679E+01
  1.03156277227E+01  1.04506063432E+01  1.05873511410E+01  1.07258852264E+01
  1.08662320119E+01  1.10084152165E+01  1.11524588694E+01  1.12983873145E+01
  1.14462252139E+01  1.15959975526E+01  1.17477296424E+01  1.19014471266E+01
  1.20571759836E+01  1.22149425321E+01  1.23747734349E+01  1.25366957040E+01
  1.27007367044E+01  1.28669241595E+01  1.30352861555E+01  1.32058511458E+01
  1.33786479564E+01  1.35537057904E+01  1.37310542329E+01  1.39107232562E+01
  1.40927432249E+01  1.42771449008E+01  1.44639594481E+01  1.46532184389E+01
  1.48449538586E+01  1.50391981108E+01  1.52359840233E+01  1.54353448533E+01
  1.56373142934E+01  1.58419264768E+01  1.60492159835E+01  1.62592178458E+01
  1.64719675547E+01  1.66875010653E+01  1.69058548033E+01  1.71270656710E+01
  1.73511710536E+01  1.75782088254E+01  1.78082173563E+01  1.80412355183E+01
  1.82773026921E+01  1.85164587735E+01  1.87587441805E+01  1.90041998599E+01
  1.92528672944E+01  1.95047885092E+01  1.97600060798E+01  2.00185631383E+01
  2.02805033817E+01  2.05458710785E+01  2.08147110763E+01  2.10870688099E+01
  2.13629903083E+01  2.16425222029E+01  2.19257117352E+01  2.22126067651E+01
  2.25032557783E+01  2.27977078953E+01  2.30960128792E+01  2.33982211443E+01
  2.37043837644E+01  2.40145524818E+01  2.43287797158E+01  2.46471185714E+01
  2.49696228487E+01  2.52963470517E+01  2.56273463975E+01  2.59626768259E+01
  2.63023950085E+01  2.66465583584E+01  2.69952250402E+01  2.73484539792E+01
  2.77063048720E+01  2.80688381963E+01  2.84361152210E+01  2.88081980169E+01
  2.91851494668E+01  2.95670332765E+01  2.99539139851E+01  3.03458569765E+01
  3.07429284900E+01  3.11451956315E+01  3.15527263852E+01  3.19655896248E+01
  3.23838551252E+01  3.28075935741E+01  3.32368765844E+01  3.36717767059E+01
  3.41123674379E+01  3.45587232412E+01  3.50109195509E+01  3.54690327894E+01
  3.59331403788E+01  3.64033207545E+01  3.68796533780E+01  3.73622187507E+01
  3.78510984273E+01  3.83463750297E+01  3.88481322607E+01  3.93564549185E+01
  3.98714289109E+01  4.03931412696E+01  4.09216801654E+01  4.14571349225E+01
  4.19995960340E+01  4.25491551773E+01  4.31059052291E+01  4.36699402814E+01
  4.42413556576E+01  4.48202479282E+01  4.54067149274E+01  4.60008557695E+01
  4.66027708656E+01  4.72125619410E+01  4.78303320517E+01  4.84561856024E+01
  4.90902283638E+01  4.97325674906E+01  5.03833115397E+01  5.10425704883E+01
  5.17104557528E+01  5.23870802075E+01  5.30725582034E+01  5.37670055879E+01
  5.44705397244E+01  5.51832795117E+01  5.59053454046E+01  5.66368594339E+01
  5.73779452272E+01  5.81287280299E+01  5.88893347260E+01  5.96598938598E+01
  6.04405356576E+01  6.12313920499E+01  6.20325966931E+01  6.28442849928E+01
  6.36665941263E+01  6.44996630657E+01  6.53436326016E+01  6.61986453670E+01
  6.70648458611E+01  6.79423804737E+01  6.88313975103E+01  6.97320472169E+01
  7.06444818054E+01  7.15688554796E+01  7.25053244606E+01  7.34540470141E+01
  7.44151834763E+01  7.53888962816E+01  7.63753499899E+01  7.73747113140E+01
  7.83871491486E+01  7.94128345979E+01  8.04519410053E+01  8.15046439822E+01
  8.25711214379E+01  8.36515536097E+01  8.47461230931E+01  8.58550148730E+01
  8.69784163548E+01  8.81165173960E+01  8.92695103383E+01  9.04375900404E+01
  9.16209539104E+01  9.28198019397E+01  9.40343367364E+01  9.52647635599E+01
  9.65112903551E+01  9.77741277882E+01  9.90534892815E+01  1.00349591050E+02
  1.01662652139E+02  1.02992894457E+02  1.04340542820E+02  1.05705824983E+02
  1.07088971683E+02  1.08490216673E+02  1.09909796768E+02  1.11347951880E+02
  1.12804925061E+02  1.14280962543E+02  1.15776313780E+02  1.17291231489E+02
  </PP_R>
  <PP_RAB>
  1.30000048357E-06  1.31701081746E-06  1.33424372932E-06  1.35170213155E-06
  1.36938897465E-06  1.38730724774E-06  1.40545997907E-06  1.42385023647E-06
  1.44248112796E-06  1.46135580219E-06  1.48047744902E-06  1.49984930007E-06
  1.51947462923E-06  1.53935675321E-06  1.55949903214E-06  1.57990487012E-06
  1.60057771579E-06  1.62152106290E-06  1.64273845093E-06  1.66423346567E-06
  1.68600973982E-06  1.70807095363E-06  1.73042083550E-06  1.75306316261E-06
  1.77600176157E-06  1.79924050905E-06  1.82278333246E-06  1.84663421059E-06
  1.87079717430E-06  1.89527630718E-06  1.92007574627E-06  1.94519968273E-06
  1.97065236257E-06  1.99643808734E-06  2.02256121491E-06  2.04902616013E-06
  2.07583739566E-06  2.10299945264E-06  2.13051692153E-06  2.15839445286E-06
  2.18663675799E-06  2.21524860993E-06  2.24423484416E-06  2.27360035942E-06
  2.30335011855E-06  2.33348914933E-06  2.36402254534E-06  2.39495546678E-06
  2.42629314140E-06  2.45804086533E-06  2.49020400401E-06  2.52278799311E-06
  2.55579833937E-06  2.58924062164E-06  2.62312049174E-06  2.65744367544E-06
  2.69221597345E-06  2.72744326237E-06  2.76313149569E-06  2.79928670481E-06
  2.83591500004E-06  2.87302257166E-06  2.91061569093E-06  2.94870071118E-06
  2.98728406887E-06  3.02637228468E-06  3.06597196461E-06  3.10608980109E-06
  3.14673257415E-06  3.18790715250E-06  3.22962049474E-06  3.27187965054E-06
  3.31469176178E-06  3.35806406382E-06  3.40200388669E-06  3.44651865630E-06
  3.49161589577E-06  3.53730322664E-06  3.58358837017E-06  3.63047914867E-06
  3.67798348678E-06  3.72610941286E-06  3.77486506029E-06  3.82425866891E-06
  3.87429858634E-06  3.92499326945E-06  3.97635128577E-06  4.02838131492E-06
  4.08109215010E-06  4.13449269957E-06  4.18859198814E-06  4.24339915873E-06
  4.29892347388E-06  4.35517431732E-06  4.41216119560E-06  4.46989373961E-06
  4.52838170631E-06  4.58763498029E-06  4.64766357550E-06  4.70847763692E-06
  4.77008744226E-06  4.83250340374E-06  4.89573606979E-06  4.95979612690E-06
  5.02469440135E-06  5.09044186111E-06  5.15704961767E-06  5.22452892788E-06
  5.29289119592E-06  5.36214797517E-06  5.43231097019E-06  5.50339203869E-06
  5.57540319355E-06  5.64835660481E-06  5.72226460179E-06  5.79713967510E-06
  5.87299447881E-06  5.94984183257E-06  6.02769472377E-06  6.10656630971E-06
  6.18646991990E-06  6.26741905823E-06  6.34942740529E-06  6.43250882070E-06
  6.51667734541E-06  6.60194720410E-06  6.68833280758E-06  6.77584875523E-06
  6.86450983744E-06  6.95433103815E-06  7.04532753736E-06  7.13751471370E-06
  7.23090814700E-06  7.32552362100E-06  7.42137712592E-06  7.51848486124E-06
  7.61686323840E-06  7.71652888357E-06  7.81749864049E-06  7.91978957328E-06
  8.02341896937E-06  8.12840434236E-06  8.23476343502E-06  8.34251422231E-06
  8.45167491435E-06  8.56226395958E-06  8.67430004779E-06  8.78780211335E-06
  8.90278933839E-06  9.01928115602E-06  9.13729725362E-06  9.25685757621E-06
  9.37798232977E-06  9.50069198465E-06  9.62500727910E-06  9.75094922268E-06
  9.87853909990E-06  1.00077984737E-05  1.01387491893E-05  1.02714133777E-05
  1.04058134593E-05  1.05419721482E-05  1.06799124555E-05  1.08196576933E-05
  1.09612314791E-05  1.11046577391E-05  1.12499607127E-05  1.13971649565E-05
  1.15462953482E-05  1.16973770913E-05  1.18504357190E-05  1.20054970986E-05
  1.21625874357E-05  1.23217332790E-05  1.24829615246E-05  1.26462994204E-05
  1.28117745710E-05  1.29794149419E-05  1.31492488648E-05  1.33213050421E-05
  1.34956125516E-05  1.36722008518E-05  1.38510997864E-05  1.40323395899E-05
  1.42159508922E-05  1.44019647240E-05  1.45904125222E-05  1.47813261347E-05
  1.49747378266E-05  1.51706802848E-05  1.53691866241E-05  1.55702903925E-05
  1.57740255771E-05  1.59804266095E-05  1.61895283720E-05  1.64013662034E-05
  1.66159759047E-05  1.68333937454E-05  1.70536564698E-05  1.72768013027E-05
  1.75028659562E-05  1.77318886356E-05  1.79639080464E-05  1.81989634005E-05
  1.84370944227E-05  1.86783413577E-05  1.89227449769E-05  1.91703465850E-05
  1.94211880273E-05  1.96753116966E-05  1.99327605404E-05  2.01935780682E-05
  2.04578083587E-05  2.07254960676E-05  2.09966864346E-05  2.12714252916E-05
  2.15497590701E-05  2.18317348091E-05  2.21174001633E-05  2.24068034108E-05
  2.26999934614E-05  2.29970198649E-05  2.32979328195E-05  2.36027831802E-05
  2.39116224675E-05  2.42245028758E-05  2.45414772828E-05  2.48625992579E-05
  2.51879230714E-05  2.55175037038E-05  2.58513968551E-05  2.61896589541E-05
  2.65323471677E-05  2.68795194111E-05  2.72312343573E-05  2.75875514469E-05
  2.79485308984E-05  2.83142337181E-05  2.86847217107E-05  2.90600574895E-05
  2.94403044872E-05  2.98255269665E-05  3.02157900308E-05  3.06111596355E-05
  3.10117025990E-05  3.14174866142E-05  3.18285802593E-05  3.22450530102E-05
  3.26669752519E-05  3.30944182901E-05  3.35274543638E-05  3.39661566570E-05
  3.44105993116E-05  3.48608574394E-05  3.53170071350E-05  3.57791254889E-05
  3.62472906002E-05  3.67215815898E-05  3.72020786142E-05  3.76888628784E-05
  3.81820166501E-05  3.86816232735E-05  3.91877671833E-05  3.97005339190E-05
  4.02200101394E-05  4.07462836373E-05  4.12794433541E-05  4.18195793951E-05
  4.23667830445E-05  4.29211467811E-05  4.34827642937E-05  4.40517304969E-05
  4.46281415474E-05  4.52120948601E-05  4.58036891244E-05  4.64030243212E-05
  4.70102017395E-05  4.76253239938E-05  4.82484950413E-05  4.88798201992E-05
  4.95194061631E-05  5.01673610244E-05  5.08237942892E-05  5.14888168962E-05
  5.21625412358E-05  5.28450811691E-05  5.35365520468E-05  5.42370707292E-05
  5.49467556057E-05  5.56657266146E-05  5.63941052639E-05  5.71320146511E-05
  5.78795794848E-05  5.86369261052E-05  5.94041825057E-05  6.01814783544E-05
  6.09689450162E-05  6.17667155748E-05  6.25749248553E-05  6.33937094471E-05
  6.42232077267E-05  6.50635598812E-05  6.59149079322E-05  6.67773957595E-05
  6.76511691257E-05  6.85363757004E-05  6.94331650858E-05  7.03416888413E-05
  7.12621005097E-05  7.21945556426E-05  7.31392118273E-05  7.40962287129E-05
  7.50657680374E-05  7.60479936555E-05  7.70430715654E-05  7.80511699379E-05
  7.90724591438E-05  8.01071117835E-05  8.11553027157E-05  8.22172090873E-05
  8.32930103629E-05  8.43828883555E-05  8.54870272571E-05  8.66056136697E-05
  8.77388366372E-05  8.88868876769E-05  9.00499608122E-05  9.12282526052E-05
  9.24219621900E-05  9.36312913064E-05  9.48564443339E-05  9.60976283262E-05
  9.73550530464E-05  9.86289310023E-05  9.99194774824E-05  1.01226910592E-04
  1.02551451290E-04  1.03893323428E-04  1.05252753785E-04  1.06629972107E-04
  1.08025211149E-04  1.09438706708E-04  1.10870697669E-04  1.12321426042E-04
  1.13791137004E-04  1.15280078938E-04  1.16788503480E-04  1.18316665558E-04
  1.19864823433E-04  1.21433238749E-04  1.23022176571E-04  1.24631905433E-04
  1.26262697385E-04  1.27914828033E-04  1.29588576591E-04  1.31284225927E-04
  1.33002062610E-04  1.34742376957E-04  1.36505463088E-04  1.38291618966E-04
  1.40101146457E-04  1.41934351375E-04  1.43791543537E-04  1.45673036812E-04
  1.47579149176E-04  1.49510202768E-04  1.51466523940E-04  1.53448443316E-04
  1.55456295843E-04  1.57490420854E-04  1.59551162122E-04  1.61638867915E-04
  1.63753891062E-04  1.65896589006E-04  1.68067323869E-04  1.70266462509E-04
  1.72494376587E-04  1.74751442625E-04  1.77038042073E-04  1.79354561371E-04
  1.81701392017E-04  1.84078930630E-04  1.86487579021E-04  1.88927744257E-04
  1.91399838731E-04  1.93904280234E-04  1.96441492021E-04  1.99011902888E-04
  2.01615947240E-04  2.04254065168E-04  2.06926702518E-04  2.09634310974E-04
  2.12377348127E-04  2.15156277557E-04  2.17971568911E-04  2.20823697978E-04
  2.23713146776E-04  2.26640403628E-04  2.29605963248E-04  2.32610326822E-04
  2.35654002095E-04  2.38737503456E-04  2.41861352022E-04  2.45026075733E-04
  2.48232209433E-04  2.51480294968E-04  2.54770881272E-04  2.58104524460E-04
  2.61481787928E-04  2.64903242440E-04  2.68369466230E-04  2.71881045099E-04
  2.75438572512E-04  2.79042649699E-04  2.82693885758E-04  2.86392897757E-04
  2.90140310837E-04  2.93936758320E-04  2.97782881815E-04  3.01679331325E-04