<PP_INFO>
Generated using ld1 code (maybe, or maybe not)                                  
Author: unknown    Generation date: as well                                     
Info: automatically converted from PWSCF format                                 
    1        The Pseudo was generated with a Scalar-Relativistic Calculation
nl pn  l   occ               Rcut            Rcut US             E pseu
*S  0  0  2.00      0.00000000000      0.00000000000      0.00000000000
*P  0  1  1.00      0.00000000000      0.00000000000      0.00000000000
*D  0  2 10.00      0.00000000000      0.00000000000      0.00000000000
</PP_INFO>


<PP_HEADER>
   0                   Version Number
  Ga                   Element
   NC                  Norm - Conserving pseudopotential
    F                  Nonlinear Core Correction
SLA  PZ   NOGX NOGC    PZ   Exchange-Correlation functional
   13.00000000000      Z valence
    0.00000000000      Total energy
  0.0000000  0.0000000 Suggested cutoff for wfc and rho
    2                  Max angular momentum component
 1164                  Number of points in mesh
    3    2             Number of Wavefunctions, Number of Projectors
 Wavefunctions         nl  l   occ
                       *S  0  2.00
                       *P  1  1.00
                       *D  2 10.00
</PP_HEADER>


<PP_MESH>
  <PP_R>
  3.18331230641E-05  3.22496552570E-05  3.26716377184E-05  3.30991417644E-05
  3.35322396441E-05  3.39710045521E-05  3.44155106408E-05  3.48658330326E-05
  3.53220478333E-05  3.57842321440E-05  3.62524640752E-05  3.67268227591E-05
  3.72073883635E-05  3.76942421050E-05  3.81874662632E-05  3.86871441940E-05
  3.91933603443E-05  3.97062002658E-05  4.02257506297E-05  4.07520992411E-05
  4.12853350543E-05  4.18255481874E-05  4.23728299377E-05  4.29272727971E-05
  4.34889704677E-05  4.40580178779E-05  4.46345111980E-05  4.52185478567E-05
  4.58102265576E-05  4.64096472958E-05  4.70169113749E-05  4.76321214239E-05
  4.82553814148E-05  4.88867966800E-05  4.95264739302E-05  5.01745212724E-05
  5.08310482281E-05  5.14961657519E-05  5.21699862503E-05  5.28526236006E-05
  5.35441931700E-05  5.42448118355E-05  5.49545980034E-05  5.56736716290E-05
  5.64021542377E-05  5.71401689447E-05  5.78878404763E-05  5.86452951907E-05
  5.94126610995E-05  6.01900678895E-05  6.09776469442E-05  6.17755313664E-05
  6.25838560004E-05  6.34027574550E-05  6.42323741266E-05  6.50728462222E-05
  6.59243157838E-05  6.67869267116E-05  6.76608247890E-05  6.85461577068E-05
  6.94430750884E-05  7.03517285150E-05  7.12722715512E-05  7.22048597708E-05
  7.31496507837E-05  7.41068042616E-05  7.50764819658E-05  7.60588477742E-05
  7.70540677089E-05  7.80623099644E-05  7.90837449360E-05  8.01185452488E-05
  8.11668857865E-05  8.22289437210E-05  8.33048985427E-05  8.43949320906E-05
  8.54992285828E-05  8.66179746482E-05  8.77513593575E-05  8.88995742553E-05
  9.00628133928E-05  9.12412733601E-05  9.24351533197E-05  9.36446550403E-05
  9.48699829305E-05  9.61113440735E-05  9.73689482625E-05  9.86430080355E-05
  9.99337387116E-05  1.01241358427E-04  1.02566088174E-04  1.03908151833E-04
  1.05267776217E-04  1.06645191107E-04  1.08040629287E-04  1.09454326590E-04
  1.10886521936E-04  1.12337457367E-04  1.13807378097E-04  1.15296532543E-04
  1.16805172379E-04  1.18333552566E-04  1.19881931406E-04  1.21450570577E-04
  1.23039735184E-04  1.24649693799E-04  1.26280718509E-04  1.27933084960E-04
  1.29607072408E-04  1.31302963759E-04  1.33021045624E-04  1.34761608362E-04
  1.36524946133E-04  1.38311356944E-04  1.40121142704E-04  1.41954609271E-04
  1.43812066504E-04  1.45693828319E-04  1.47600212738E-04  1.49531541944E-04
  1.51488142336E-04  1.53470344585E-04  1.55478483688E-04  1.57512899024E-04
  1.59573934415E-04  1.61661938181E-04  1.63777263200E-04  1.65920266965E-04
  1.68091311651E-04  1.70290764168E-04  1.72518996230E-04  1.74776384412E-04
  1.77063310220E-04  1.79380160149E-04  1.81727325751E-04  1.84105203704E-04
  1.86514195875E-04  1.88954709389E-04  1.91427156698E-04  1.93931955653E-04
  1.96469529569E-04  1.99040307304E-04  2.01644723324E-04  2.04283217783E-04
  2.06956236591E-04  2.09664231496E-04  2.12407660155E-04  2.15186986215E-04
  2.18002679387E-04  2.20855215531E-04  2.23745076732E-04  2.26672751383E-04
  2.29638734269E-04  2.32643526648E-04  2.35687636336E-04  2.38771577796E-04
  2.41895872221E-04  2.45061047623E-04  2.48267638927E-04  2.51516188052E-04
  2.54807244011E-04  2.58141363001E-04  2.61519108496E-04  2.64941051343E-04
  2.68407769858E-04  2.71919849925E-04  2.75477885094E-04  2.79082476681E-04
  2.82734233871E-04  2.86433773819E-04  2.90181721757E-04  2.93978711096E-04
  2.97825383537E-04  3.01722389177E-04  3.05670386619E-04  3.09670043084E-04
  3.13722034523E-04  3.17827045733E-04  3.21985770469E-04  3.26198911568E-04
  3.30467181059E-04  3.34791300289E-04  3.39172000047E-04  3.43610020680E-04
  3.48106112224E-04  3.52661034529E-04  3.57275557389E-04  3.61950460669E-04
  3.66686534437E-04  3.71484579103E-04  3.76345405547E-04  3.81269835260E-04
  3.86258700482E-04  3.91312844345E-04  3.96433121009E-04  4.01620395815E-04
  4.06875545423E-04  4.12199457967E-04  4.17593033200E-04  4.23057182650E-04
  4.28592829770E-04  4.34200910099E-04  4.39882371415E-04  4.45638173899E-04
  4.51469290295E-04  4.57376706076E-04  4.63361419608E-04  4.69424442324E-04
  4.75566798887E-04  4.81789527371E-04  4.88093679432E-04  4.94480320486E-04
  5.00950529892E-04  5.07505401130E-04  5.14146041988E-04  5.20873574751E-04
  5.27689136388E-04  5.34593878744E-04  5.41588968739E-04  5.48675588559E-04
  5.55854935858E-04  5.63128223965E-04  5.70496682083E-04  5.77961555497E-04
  5.85524105790E-04  5.93185611050E-04  6.00947366090E-04  6.08810682666E-04
  6.16776889696E-04  6.24847333488E-04  6.33023377967E-04  6.41306404903E-04
  6.49697814148E-04  6.58199023870E-04  6.66811470794E-04  6.75536610443E-04
  6.84375917388E-04  6.93330885491E-04  7.02403028164E-04  7.11593878621E-04
  7.20904990137E-04  7.30337936311E-04  7.39894311336E-04  7.49575730260E-04
  7.59383829267E-04  7.69320265948E-04  7.79386719585E-04  7.89584891433E-04
  7.99916505006E-04  8.10383306373E-04  8.20987064448E-04  8.31729571290E-04
  8.42612642410E-04  8.53638117071E-04  8.64807858607E-04  8.76123754728E-04
  8.87587717850E-04  8.99201685408E-04  9.10967620191E-04  9.22887510670E-04
  9.34963371336E-04  9.47197243036E-04  9.59591193324E-04  9.72147316809E-04
  9.84867735503E-04  9.97754599189E-04  1.01081008578E-03  1.02403640168E-03
  1.03743578216E-03  1.05101049177E-03  1.06476282465E-03  1.07869510498E-03
  1.09280968735E-03  1.10710895715E-03  1.12159533101E-03  1.13627125715E-03
  1.15113921583E-03  1.16620171979E-03  1.18146131460E-03  1.19692057920E-03
  1.21258212622E-03  1.22844860250E-03  1.24452268952E-03  1.26080710384E-03
  1.27730459756E-03  1.29401795880E-03  1.31095001215E-03  1.32810361917E-03
  1.34548167887E-03  1.36308712817E-03  1.38092294245E-03  1.39899213598E-03
  1.41729776252E-03  1.43584291575E-03  1.45463072985E-03  1.47366438001E-03
  1.49294708296E-03  1.51248209751E-03  1.53227272514E-03  1.55232231051E-03
  1.57263424204E-03  1.59321195250E-03  1.61405891958E-03  1.63517866645E-03
  1.65657476241E-03  1.67825082345E-03  1.70021051287E-03  1.72245754192E-03
  1.74499567039E-03  1.76782870728E-03  1.79096051143E-03  1.81439499216E-03
  1.83813610998E-03  1.86218787716E-03  1.88655435854E-03  1.91123967208E-03
  1.93624798969E-03  1.96158353781E-03  1.98725059821E-03  2.01325350870E-03
  2.03959666383E-03  2.06628451564E-03  2.09332157445E-03  2.12071240960E-03
  2.14846165018E-03  2.17657398590E-03  2.20505416781E-03  2.23390700912E-03
  2.26313738602E-03  2.29275023854E-03  2.32275057130E-03  2.35314345443E-03
  2.38393402441E-03  2.41512748492E-03  2.44672910771E-03  2.47874423355E-03
  2.51117827307E-03  2.54403670769E-03  2.57732509057E-03  2.61104904752E-03
  2.64521427798E-03  2.67982655594E-03  2.71489173098E-03  2.75041572917E-03
  2.78640455417E-03  2.82286428817E-03  2.85980109296E-03  2.89722121094E-03
  2.93513096619E-03  2.97353676557E-03  3.01244509974E-03  3.05186254430E-03
  3.09179576089E-03  3.13225149832E-03  3.17323659372E-03  3.21475797365E-03
  3.25682265533E-03  3.29943774778E-03  3.34261045308E-03  3.38634806749E-03
  3.43065798279E-03  3.47554768745E-03  3.52102476794E-03  3.56709691000E-03
  3.61377189993E-03  3.66105762591E-03  3.70896207934E-03  3.75749335619E-03
  3.80665965836E-03  3.85646929507E-03  3.90693068428E-03  3.95805235407E-03
  4.00984294412E-03  4.06231120718E-03  4.11546601050E-03  4.16931633737E-03
  4.22387128863E-03  4.27914008418E-03  4.33513206460E-03  4.39185669265E-03
  4.44932355494E-03  4.50754236349E-03  4.56652295744E-03  4.62627530463E-03
  4.68680950336E-03  4.74813578406E-03  4.81026451100E-03  4.87320618409E-03
  4.93697144063E-03  5.00157105708E-03  5.06701595096E-03  5.13331718259E-03
  5.20048595704E-03  5.26853362599E-03  5.33747168967E-03  5.40731179876E-03
  5.47806575642E-03  5.54974552023E-03  5.62236320425E-03  5.69593108102E-03
  5.77046158371E-03  5.84596730814E-03  5.92246101495E-03  5.99995563178E-03
  6.07846425538E-03  6.15800015392E-03  6.23857676913E-03  6.32020771867E-03
  6.40290679836E-03  6.48668798453E-03  6.57156543641E-03  6.65755349849E-03
  6.74466670296E-03  6.83291977216E-03  6.92232762106E-03  7.01290535980E-03
  7.10466829624E-03  7.19763193853E-03  7.29181199775E-03  7.38722439055E-03
  7.48388524186E-03  7.58181088759E-03  7.68101787740E-03  7.78152297751E-03
  7.88334317353E-03  7.98649567331E-03  8.09099790986E-03  8.19686754432E-03
  8.30412246891E-03  8.41278080995E-03  8.52286093098E-03  8.63438143578E-03
  8.74736117160E-03  8.86181923228E-03  8.97777496150E-03  9.09524795606E-03
  9.21425806917E-03  9.33482541383E-03  9.45697036619E-03  9.58071356906E-03
  9.70607593532E-03  9.83307865152E-03  9.96174318142E-03  1.00920912696E-02
  1.02241449453E-02  1.03579265257E-02  1.04934586205E-02  1.06307641346E-02
  1.07698662733E-02  1.09107885449E-02  1.10535547659E-02  1.11981890638E-02
  1.13447158824E-02  1.14931599849E-02  1.16435464589E-02  1.17959007199E-02
  1.19502485162E-02  1.21066159330E-02  1.22650293966E-02  1.24255156794E-02
  1.25881019040E-02  1.27528155477E-02  1.29196844476E-02  1.30887368049E-02
  1.32600011899E-02  1.34335065467E-02  1.36092821980E-02  1.37873578505E-02
  1.39677635992E-02  1.41505299332E-02  1.43356877404E-02  1.45232683130E-02
  1.47133033525E-02  1.49058249753E-02  1.51008657180E-02  1.52984585430E-02
  1.54986368438E-02  1.57014344512E-02  1.59068856383E-02  1.61150251270E-02
  1.63258880933E-02  1.65395101735E-02  1.67559274703E-02  1.69751765588E-02
  1.71972944925E-02  1.74223188098E-02  1.76502875406E-02  1.78812392119E-02
  1.81152128552E-02  1.83522480126E-02  1.85923847436E-02  1.88356636319E-02
  1.90821257922E-02  1.93318128771E-02  1.95847670844E-02  1.98410311640E-02
  2.01006484250E-02  2.03636627435E-02  2.06301185695E-02  2.09000609346E-02
  2.11735354597E-02  2.14505883628E-02  2.17312664663E-02  2.20156172055E-02
  2.23036886365E-02  2.25955294440E-02  2.28911889497E-02  2.31907171208E-02
  2.34941645783E-02  2.38015826055E-02  2.41130231569E-02  2.44285388665E-02
  2.47481830574E-02  2.50720097501E-02  2.54000736721E-02  2.57324302670E-02
  2.60691357039E-02  2.64102468868E-02  2.67558214643E-02  2.71059178392E-02
  2.74605951788E-02  2.78199134243E-02  2.81839333015E-02  2.85527163304E-02
  2.89263248363E-02  2.93048219600E-02  2.96882716684E-02  3.00767387653E-02
  3.04702889027E-02  3.08689885914E-02  3.12729052126E-02  3.16821070293E-02
  3.20966631974E-02  3.25166437781E-02  3.29421197489E-02  3.33731630163E-02
  3.38098464278E-02  3.42522437838E-02  3.47004298504E-02  3.51544803724E-02
  3.56144720851E-02  3.60804827285E-02  3.65525910592E-02  3.70308768649E-02
  3.75154209769E-02  3.80063052843E-02  3.85036127478E-02  3.90074274135E-02
  3.95178344273E-02  4.00349200491E-02  4.05587716677E-02  4.10894778152E-02
  4.16271281823E-02  4.21718136332E-02  4.27236262209E-02  4.32826592031E-02
  4.38490070578E-02  4.44227654990E-02  4.50040314933E-02  4.55929032760E-02
  4.61894803679E-02  4.67938635920E-02  4.74061550903E-02  4.80264583417E-02
  4.86548781789E-02  4.92915208063E-02  4.99364938180E-02  5.05899062160E-02
  5.12518684286E-02  5.19224923289E-02  5.26018912540E-02  5.32901800240E-02
  5.39874749612E-02  5.46938939101E-02  5.54095562573E-02  5.61345829514E-02
  5.68690965236E-02  5.76132211085E-02  5.83670824649E-02  5.91308079971E-02
  5.99045267766E-02  6.06883695638E-02  6.14824688298E-02  6.22869587794E-02
  6.31019753733E-02  6.39276563512E-02  6.47641412551E-02  6.56115714531E-02
  6.64700901629E-02  6.73398424760E-02  6.82209753829E-02  6.91136377969E-02
  7.00179805802E-02  7.09341565689E-02  7.18623205989E-02  7.28026295321E-02
  7.37552422830E-02  7.47203198454E-02  7.56980253196E-02  7.66885239403E-02
  7.76919831041E-02  7.87085723979E-02  7.97384636278E-02  8.07818308479E-02
  8.18388503896E-02  8.29097008918E-02  8.39945633309E-02  8.50936210510E-02
  8.62070597956E-02  8.73350677385E-02  8.84778355157E-02  8.96355562577E-02
  9.08084256221E-02  9.19966418265E-02  9.32004056824E-02  9.44199206286E-02
  9.56553927661E-02  9.69070308927E-02  9.81750465382E-02  9.94596540002E-02
  1.00761070380E-01  1.02079515621E-01  1.03415212543E-01  1.04768386883E-01
  1.06139267328E-01  1.07528085563E-01  1.08935076300E-01  1.10360477324E-01
  1.11804529532E-01  1.13267476971E-01  1.14749566883E-01  1.16251049746E-01
  1.17772179312E-01  1.19313212657E-01  1.20874410219E-01  1.22456035844E-01
  1.24058356830E-01  1.25681643974E-01  1.27326171615E-01  1.28992217682E-01
  1.30680063741E-01  1.32389995042E-01  1.34122300567E-01  1.35877273079E-01
  1.37655209175E-01  1.39456409328E-01  1.41281177947E-01  1.43129823421E-01
  1.45002658175E-01  1.46899998724E-01  1.48822165723E-01  1.50769484022E-01
  1.52742282722E-01  1.54740895232E-01  1.56765659321E-01  1.58816917180E-01
  1.60895015475E-01  1.63000305412E-01  1.65133142788E-01  1.67293888058E-01
  1.69482906393E-01  1.71700567743E-01  1.73947246898E-01  1.76223323551E-01
  1.78529182365E-01  1.80865213036E-01  1.83231810359E-01  1.85629374294E-01
  1.88058310034E-01  1.90519028077E-01  1.93011944289E-01  1.95537479979E-01
  1.98096061968E-01  2.00688122663E-01  2.03314100129E-01  2.05974438162E-01
  2.08669586365E-01  2.11400000224E-01  2.14166141187E-01  2.16968476737E-01
  2.19807480477E-01  2.22683632204E-01  2.25597417994E-01  2.28549330285E-01
  2.31539867957E-01  2.34569536418E-01  2.37638847689E-01  2.40748320490E-01
  2.43898480331E-01  2.47089859595E-01  2.50322997634E-01  2.53598440855E-01
  2.56916742816E-01  2.60278464319E-01  2.63684173501E-01  2.67134445936E-01
  2.70629864728E-01  2.74171020612E-01  2.77758512051E-01  2.81392945339E-01
  2.85074934705E-01  2.88805102413E-01  2.92584078871E-01  2.96412502734E-01
  3.00291021016E-01  3.04220289196E-01  3.08200971328E-01  3.12233740158E-01
  3.16319277233E-01  3.20458273019E-01  3.24651427016E-01  3.28899447877E-01
  3.33203053527E-01  3.37562971286E-01  3.41979937991E-01  3.46454700119E-01
  3.50988013917E-01  3.55580645524E-01  3.60233371106E-01  3.64946976985E-01
  3.69722259773E-01  3.74560026502E-01  3.79461094767E-01  3.84426292860E-01
  3.89456459912E-01  3.94552446032E-01  3.99715112455E-01  4.04945331683E-01
  4.10243987636E-01  4.15611975800E-01  4.21050203376E-01  4.26559589439E-01
  4.32141065088E-01  4.37795573605E-01  4.43524070617E-01  4.49327524252E-01
  4.55206915307E-01  4.61163237416E-01  4.67197497208E-01  4.73310714490E-01
  4.79503922409E-01  4.85778167632E-01  4.92134510522E-01  4.98574025316E-01
  5.05097800306E-01  5.11706938027E-01  5.18402555438E-01  5.25185784115E-01
  5.32057770439E-01  5.39019675793E-01  5.46072676755E-01  5.53217965299E-01
  5.60456748996E-01  5.67790251218E-01  5.75219711343E-01  5.82746384969E-01
  5.90371544121E-01  5.98096477468E-01  6.05922490544E-01  6.13850905964E-01
  6.21883063647E-01  6.30020321048E-01  6.38264053383E-01  6.46615653862E-01
  6.55076533925E-01  6.63648123482E-01  6.72331871152E-01  6.81129244508E-01
  6.90041730327E-01  6.99070834841E-01  7.08218083990E-01  7.17485023681E-01
  7.26873220048E-01  7.36384259720E-01  7.46019750084E-01  7.55781319562E-01
  7.65670617881E-01  7.75689316358E-01  7.85839108175E-01  7.96121708671E-01
  8.06538855631E-01  8.17092309578E-01  8.27783854069E-01  8.38615296003E-01
  8.49588465917E-01  8.60705218304E-01  8.71967431921E-01  8.83377010110E-01
  8.94935881116E-01  9.06645998416E-01  9.18509341047E-01  9.30527913944E-01
  9.42703748272E-01  9.55038901778E-01  9.67535459131E-01  9.80195532280E-01
  9.93021260806E-01  1.00601481229E+00  1.01917838267E+00  1.03251419662E+00
  1.04602450793E+00  1.05971159987E+00  1.07357778560E+00  1.08762540852E+00
  1.10185684273E+00  1.11627449337E+00  1.13088079705E+00  1.14567822228E+00
  1.16066926986E+00  1.17585647330E+00  1.19124239929E+00  1.20682964808E+00
  1.22262085395E+00  1.23861868565E+00  1.25482584686E+00  1.27124507663E+00
  1.28787914984E+00  1.30473087769E+00  1.32180310816E+00  1.33909872651E+00
  1.35662065573E+00  1.37437185707E+00  1.39235533052E+00  1.41057411534E+00
  1.42903129054E+00  1.44772997543E+00  1.46667333013E+00  1.48586455611E+00
  1.50530689674E+00  1.52500363782E+00  1.54495810815E+00  1.56517368007E+00
  1.58565377007E+00  1.60640183933E+00  1.62742139432E+00  1.64871598741E+00
  1.67028921741E+00  1.69214473028E+00  1.71428621963E+00  1.73671742743E+00
  1.75944214461E+00  1.78246421170E+00  1.80578751948E+00  1.82941600965E+00
  1.85335367548E+00  1.87760456250E+00  1.90217276915E+00  1.92706244753E+00
  1.95227780405E+00  1.97782310017E+00  2.00370265310E+00  2.02992083654E+00
  2.05648208144E+00  2.08339087670E+00  2.11065176998E+00  2.13826936843E+00
  2.16624833950E+00  2.19459341169E+00  2.22330937539E+00  2.25240108367E+00
  2.28187345309E+00  2.31173146455E+00  2.34198016414E+00  2.37262466395E+00
  2.40367014297E+00  2.43512184797E+00  2.46698509435E+00  2.49926526709E+00
  2.53196782161E+00  2.56509828471E+00  2.59866225553E+00  2.63266540646E+00
  2.66711348410E+00  2.70201231028E+00  2.73736778296E+00  2.77318587732E+00
  2.80947264669E+00  2.84623422362E+00  2.88347682091E+00  2.92120673265E+00
  2.95943033527E+00  2.99815408867E+00  3.03738453725E+00  3.07712831104E+00
  3.11739212684E+00  3.15818278932E+00  3.19950719222E+00  3.24137231945E+00
  3.28378524631E+00  3.32675314070E+00  3.37028326428E+00  3.41438297376E+00
  3.45905972209E+00  3.50432105974E+00  3.55017463599E+00  3.59662820021E+00
  3.64368960315E+00  3.69136679831E+00  3.73966784324E+00  3.78860090094E+00
  3.83817424121E+00  3.88839624206E+00  3.93927539113E+00  3.99082028711E+00
  4.04303964123E+00  4.09594227866E+00  4.14953714009E+00  4.20383328318E+00
  4.25883988409E+00  4.31456623908E+00  4.37102176603E+00  4.42821600607E+00
  4.48615862515E+00  4.54485941571E+00  4.60432829834E+00  4.66457532340E+00
  4.72561067280E+00  4.78744466165E+00  4.85008774004E+00  4.91355049480E+00
  4.97784365129E+00  5.04297807520E+00  5.10896477442E+00  5.17581490083E+00
  5.24353975229E+00  5.31215077445E+00  5.38165956272E+00  5.45207786428E+00
  5.52341757997E+00  5.59569076637E+00  5.66890963784E+00  5.74308656853E+00
  5.81823409451E+00  5.89436491591E+00  5.97149189900E+00  6.04962807844E+00
  6.12878665942E+00  6.20898101994E+00  6.29022471302E+00  6.37253146905E+00
  6.45591519807E+00  6.54038999213E+00  6.62597012766E+00  6.71267006791E+00
  6.80050446537E+00  6.88948816428E+00  6.97963620309E+00  7.07096381703E+00
  7.16348644068E+00  7.25721971059E+00  7.35217946790E+00  7.44838176105E+00
  7.54584284843E+00  7.64457920122E+00  7.74460750609E+00  7.84594466807E+00
  7.94860781336E+00  8.05261429229E+00  8.15798168221E+00  8.26472779044E+00
  8.37287065734E+00  8.48242855932E+00  8.59342001190E+00  8.70586377293E+00
  8.81977884565E+00  8.93518448199E+00  9.05210018577E+00  9.17054571603E+00
  9.29054109034E+00  9.41210658821E+00  9.53526275449E+00  9.66003040287E+00
  9.78643061939E+00  9.91448476597E+00  1.00442144841E+01  1.01756416983E+01
  1.03087886203E+01  1.04436777520E+01  1.05803318901E+01  1.07187741295E+01
  1.08590278673E+01  1.10011168066E+01  1.11450649608E+01  1.12908966575E+01
  1.14386365427E+01  1.15883095846E+01  1.17399410784E+01  1.18935566503E+01
  1.20491822615E+01  1.22068442132E+01  1.23665691506E+01  1.25283840676E+01
  1.26923163113E+01  1.28583935868E+01  1.30266439613E+01  1.31970958697E+01
  1.33697781187E+01  1.35447198920E+01  1.37219507552E+01  1.39015006608E+01
  1.40833999530E+01  1.42676793734E+01  1.44543700655E+01  1.46435035806E+01
  1.48351118826E+01  1.50292273539E+01  1.52258828003E+01  1.54251114572E+01
  1.56269469946E+01  1.58314235233E+01  1.60385756002E+01  1.62484382346E+01
  1.64610468937E+01  1.66764375089E+01  1.68946464817E+01  1.71157106900E+01
  1.73396674942E+01  1.75665547434E+01  1.77964107822E+01  1.80292744567E+01
  1.82651851216E+01  1.85041826462E+01  1.87463074217E+01  1.89916003678E+01
  1.92401029396E+01  1.94918571346E+01  1.97469054998E+01  2.00052911390E+01
  2.02670577200E+01  2.05322494821E+01  2.08009112432E+01  2.10730884077E+01
  2.13488269744E+01  2.16281735437E+01  2.19111753257E+01  2.21978801486E+01
  2.24883364660E+01  2.27825933658E+01  2.30807005781E+01  2.33827084837E+01
  2.36886681227E+01  2.39986312030E+01  2.43126501091E+01  2.46307779110E+01
  2.49530683729E+01  2.52795759628E+01  2.56103558612E+01  2.59454639707E+01
  2.62849569253E+01  2.66288921002E+01  2.69773276213E+01  2.73303223750E+01
  2.76879360181E+01  2.80502289884E+01  2.84172625141E+01  2.87890986249E+01
  2.91658001618E+01  2.95474307883E+01  2.99340550010E+01  3.03257381402E+01
  3.07225464014E+01  3.11245468460E+01  3.15318074131E+01  3.19443969307E+01
  3.23623851275E+01  3.27858426443E+01  3.32148410466E+01  3.36494528361E+01
  3.40897514632E+01  3.45358113394E+01  3.49877078499E+01  3.54455173664E+01
  3.59093172596E+01  3.63791859129E+01  3.68552027353E+01  3.73374481746E+01
  3.78260037315E+01  3.83209519731E+01  3.88223765467E+01  3.93303621944E+01
  3.98449947670E+01  4.03663612384E+01  4.08945497210E+01  4.14296494799E+01
  4.19717509481E+01  4.25209457421E+01  4.30773266772E+01  4.36409877829E+01
  4.42120243195E+01  4.47905327935E+01  4.53766109740E+01  4.59703579099E+01
  4.65718739456E+01  4.71812607389E+01  4.77986212775E+01  4.84240598969E+01
  4.90576822977E+01  4.96995955635E+01  5.03499081793E+01  5.10087300494E+01
  5.16761725163E+01  5.23523483794E+01  5.30373719139E+01  5.37313588905E+01
  5.44344265946E+01  5.51466938464E+01  5.58682810207E+01  5.65993100675E+01
  5.73399045324E+01  5.80901895776E+01  5.88502920032E+01  5.96203402681E+01
  6.04004645125E+01  6.11907965791E+01  6.19914700360E+01  6.28026201988E+01
  6.36243841540E+01  6.44569007815E+01  6.53003107786E+01  6.61547566837E+01
  6.70203829001E+01  6.78973357208E+01  6.87857633528E+01  6.96858159425E+01
  7.05976456010E+01  7.15214064296E+01  7.24572545461E+01  7.34053481111E+01
  7.43658473546E+01  7.53389146033E+01  7.63247143080E+01  7.73234130710E+01
  7.83351796748E+01  7.93601851105E+01  8.03986026063E+01  8.14506076573E+01
  8.25163780549E+01  8.35960939167E+01  8.46899377174E+01  8.57980943192E+01
  8.69207510031E+01  8.80580975007E+01  8.92103260265E+01  9.03776313097E+01
  9.15602106277E+01  9.27582638392E+01  9.39719934180E+01  9.52016044874E+01
  9.64473048546E+01  9.77093050458E+01  9.89878183422E+01  1.00283060815E+02
  1.01595251365E+02  1.02924611753E+02  1.04271366646E+02  1.05635743648E+02
  1.07017973342E+02  1.08418289328E+02  1.09836928264E+02  1.11274129901E+02
  1.12730137131E+02  1.14205196023E+02  1.15699555865E+02  1.17213469207E+02
  </PP_R>
  <PP_RAB>
  4.13830599833E-07  4.19245518341E-07  4.24731290340E-07  4.30288842937E-07
  4.35919115374E-07  4.41623059178E-07  4.47401638330E-07  4.53255829424E-07
  4.59186621832E-07  4.65195017872E-07  4.71282032978E-07  4.77448695868E-07
  4.83696048725E-07  4.90025147365E-07  4.96437061421E-07  5.02932874522E-07
  5.09513684476E-07  5.16180603456E-07  5.22934758186E-07  5.29777290134E-07
  5.36709355706E-07  5.43732126436E-07  5.50846789190E-07  5.58054546362E-07
  5.65356616081E-07  5.72754232413E-07  5.80248645574E-07  5.87841122137E-07
  5.95532945249E-07  6.03325414846E-07  6.11219847874E-07  6.19217578511E-07
  6.27319958393E-07  6.35528356840E-07  6.43844161093E-07  6.52268776541E-07
  6.60803626965E-07  6.69450154775E-07  6.78209821254E-07  6.87084106808E-07
  6.96074511210E-07  7.05182553862E-07  7.14409774044E-07  7.23757731177E-07
  7.33228005091E-07  7.42822196282E-07  7.52541926192E-07  7.62388837479E-07
  7.72364594294E-07  7.82470882564E-07  7.92709410275E-07  8.03081907763E-07
  8.13590128005E-07  8.24235846916E-07  8.35020863646E-07  8.45947000889E-07
  8.57016105189E-07  8.68230047251E-07  8.79590722257E-07  8.91100050189E-07
  9.02759976150E-07  9.14572470695E-07  9.26539530165E-07  9.38663177021E-07
  9.50945460188E-07  9.63388455401E-07  9.75994265556E-07  9.88765021064E-07
  1.00170288022E-06  1.01481002954E-06  1.02808868417E-06  1.04154108824E-06
  1.05516951522E-06  1.06897626837E-06  1.08296368106E-06  1.09713411718E-06
  1.11148997158E-06  1.12603367043E-06  1.14076767165E-06  1.15569446532E-06
  1.17081657411E-06  1.18613655368E-06  1.20165699316E-06  1.21738051552E-06
  1.23330977810E-06  1.24944747296E-06  1.26579632741E-06  1.28235910446E-06
  1.29913860325E-06  1.31613765956E-06  1.33335914626E-06  1.35080597383E-06
  1.36848109083E-06  1.38638748438E-06  1.40452818073E-06  1.42290624568E-06
  1.44152478517E-06  1.46038694578E-06  1.47949591525E-06  1.49885492307E-06
  1.51846724093E-06  1.53833618336E-06  1.55846510828E-06  1.57885741750E-06
  1.59951655739E-06  1.62044601938E-06  1.64164934061E-06  1.66313010449E-06
  1.68489194130E-06  1.70693852887E-06  1.72927359311E-06  1.75190090871E-06
  1.77482429973E-06  1.79804764028E-06  1.82157485516E-06  1.84540992052E-06
  1.86955686456E-06  1.89401976815E-06  1.91880276559E-06  1.94391004527E-06
  1.96934585037E-06  1.99511447961E-06  2.02122028794E-06  2.04766768732E-06
  2.07446114740E-06  2.10160519636E-06  2.12910442160E-06  2.15696347055E-06
  2.18518705146E-06  2.21377993418E-06  2.24274695099E-06  2.27209299736E-06
  2.30182303286E-06  2.33194208193E-06  2.36245523476E-06  2.39336764816E-06
  2.42468454637E-06  2.45641122205E-06  2.48855303707E-06  2.52111542348E-06
  2.55410388440E-06  2.58752399495E-06  2.62138140321E-06  2.65568183117E-06
  2.69043107568E-06  2.72563500945E-06  2.76129958202E-06  2.79743082079E-06
  2.83403483203E-06  2.87111780190E-06  2.90868599751E-06  2.94674576798E-06
  2.98530354550E-06  3.02436584642E-06  3.06393927237E-06  3.10403051134E-06
  3.14464633887E-06  3.18579361910E-06  3.22747930605E-06  3.26971044467E-06
  3.31249417215E-06  3.35583771902E-06  3.39974841045E-06  3.44423366746E-06
  3.48930100816E-06  3.53495804903E-06  3.58121250622E-06  3.62807219685E-06
  3.67554504032E-06  3.72363905965E-06  3.77236238284E-06  3.82172324425E-06
  3.87172998599E-06  3.92239105931E-06  3.97371502605E-06  4.02571056009E-06
  4.07838644880E-06  4.13175159452E-06  4.18581501610E-06  4.24058585038E-06
  4.29607335376E-06  4.35228690376E-06  4.40923600061E-06  4.46693026884E-06
  4.52537945891E-06  4.58459344888E-06  4.64458224606E-06  4.70535598869E-06
  4.76692494768E-06  4.82929952834E-06  4.89249027211E-06  4.95650785838E-06
  5.02136310627E-06  5.08706697648E-06  5.15363057312E-06  5.22106514559E-06
  5.28938209050E-06  5.35859295357E-06  5.42870943160E-06  5.49974337445E-06
  5.57170678702E-06  5.64461183129E-06  5.71847082840E-06  5.79329626069E-06
  5.86910077384E-06  5.94589717899E-06  6.02369845491E-06  6.10251775021E-06
  6.18236838553E-06  6.26326385582E-06  6.34521783262E-06  6.42824416632E-06
  6.51235688860E-06  6.59757021468E-06  6.68389854584E-06  6.77135647176E-06
  6.85995877304E-06  6.94972042368E-06  7.04065659361E-06  7.13278265126E-06
  7.22611416616E-06  7.32066691155E-06  7.41645686707E-06  7.51350022146E-06
  7.61181337527E-06  7.71141294365E-06  7.81231575917E-06  7.91453887465E-06
  8.01809956604E-06  8.12301533534E-06  8.22930391357E-06  8.33698326374E-06
  8.44607158393E-06  8.55658731031E-06  8.66854912032E-06  8.78197593576E-06
  8.89688692604E-06  9.01330151138E-06  9.13123936613E-06  9.25072042207E-06
  9.37176487177E-06  9.49439317205E-06  9.61862604737E-06  9.74448449338E-06
  9.87198978047E-06  1.00011634573E-05  1.01320273546E-05  1.02646035886E-05
  1.03989145651E-05  1.05349829829E-05  1.06728318378E-05  1.08124844268E-05
  1.09539643513E-05  1.10972955219E-05  1.12425021619E-05  1.13896088115E-05
  1.15386403320E-05  1.16896219103E-05  1.18425790625E-05  1.19975376387E-05
  1.21545238274E-05  1.23135641595E-05  1.24746855132E-05  1.26379151185E-05
  1.28032805615E-05  1.29708097895E-05  1.31405311151E-05  1.33124732218E-05
  1.34866651681E-05  1.36631363930E-05  1.38419167204E-05  1.40230363647E-05
  1.42065259355E-05  1.43924164430E-05  1.45807393032E-05  1.47715263429E-05
  1.49648098058E-05  1.51606223572E-05  1.53589970899E-05  1.55599675296E-05
  1.57635676408E-05  1.59698318325E-05  1.61787949638E-05  1.63904923499E-05
  1.66049597683E-05  1.68222334644E-05  1.70423501579E-05  1.72653470493E-05
  1.74912618253E-05  1.77201326663E-05  1.79519982518E-05  1.81868977678E-05
  1.84248709127E-05  1.86659579048E-05  1.89101994881E-05  1.91576369401E-05
  1.94083120784E-05  1.96622672677E-05  1.99195454268E-05  2.01801900366E-05
  2.04442451465E-05  2.07117553826E-05  2.09827659545E-05  2.12573226639E-05
  2.15354719114E-05  2.18172607049E-05  2.21027366673E-05  2.23919480449E-05
  2.26849437150E-05  2.29817731946E-05  2.32824866485E-05  2.35871348981E-05
  2.38957694297E-05  2.42084424031E-05  2.45252066610E-05  2.48461157371E-05
  2.51712238659E-05  2.55005859915E-05  2.58342577768E-05  2.61722956131E-05