                                                                                     
                             WELCOME TO ABACUS                                       
                                                                                     
               'Atomic-orbital Based Ab-initio Computation at UStc'                  
                                                                                     
                     Website: http://abacus.ustc.edu.cn/                             
                                                                                     
    Version: Parallel, in development
    Processor Number is 16
    Start Time is Sun Sep 25 10:10:00 2022
                                                                                     
 ------------------------------------------------------------------------------------

 READING GENERAL INFORMATION
                           global_out_dir = OUT.ABACUS/
                           global_in_card = INPUT
                               pseudo_dir = 
                              orbital_dir = 
                              pseudo_type = auto
                                    DRANK = 1
                                    DSIZE = 16
                                   DCOLOR = 1
                                    GRANK = 1
                                    GSIZE = 1
 The esolver type has been set to : ksdft_pw




 >>>>>>>>>>>>>>>>>>>>>>>>>>>>>>>>>>>>>>>>>>>>>>>>>>>>>>>>>>>>>>>>>>>>>>
 |                                                                    |
 | Reading atom information in unitcell:                              |
 | From the input file and the structure file we know the number of   |
 | different elments in this unitcell, then we list the detail        |
 | information for each element, especially the zeta and polar atomic |
 | orbital number for each element. The total atom number is counted. |
 | We calculate the nearest atom distance for each atom and show the  |
 | Cartesian and Direct coordinates for each atom. We list the file   |
 | address for atomic orbitals. The volume and the lattice vectors    |
 | in real and reciprocal space is also shown.                        |
 |                                                                    |
 <<<<<<<<<<<<<<<<<<<<<<<<<<<<<<<<<<<<<<<<<<<<<<<<<<<<<<<<<<<<<<<<<<<<<<




 READING UNITCELL INFORMATION
                                    ntype = 1
                 atom label for species 1 = Pt
                  lattice constant (Bohr) = 1.88973
              lattice constant (Angstrom) = 1

 READING ATOM TYPE 1
                               atom label = Pt
                      L=0, number of zeta = 1
                      L=1, number of zeta = 1
                      L=2, number of zeta = 1
             number of atom for this type = 27

                        TOTAL ATOM NUMBER = 27

 CARTESIAN COORDINATES ( UNIT = 1.88973 Bohr ).
         atom                   x                   y                   z                 mag                  vx                  vy                  vz
     tauc_Pt1                   0                   0       3.28805224601                   0                   0                   0                   0
     tauc_Pt2         1.405985941      0.811746361996       1.64352612299                   0                   0                   0                   0
     tauc_Pt3  -3.43847172957e-12       1.62349272299                   0                   0                   0                   0                   0
     tauc_Pt4         2.811971882                   0       3.28705224602                   0                   0                   0                   0
     tauc_Pt5         4.218042047      0.811746361996       1.64352612299                   0                   0                   0                   0
     tauc_Pt6         2.811971882       1.62349272299                   0                   0                   0                   0                   0
     tauc_Pt7       5.62402823901                   0       3.28705224602                   0                   0                   0                   0
     tauc_Pt8       7.03001418101      0.811746361996       1.64352612299                   0                   0                   0                   0
     tauc_Pt9       5.62402798801       1.62349272299                   0                   0                   0                   0                   0
    tauc_Pt10      -1.40598594101         2.435239085       3.28705224602                   0                   0                   0                   0
    tauc_Pt11   7.95585819446e-13         3.246985446       1.64352612299                   0                   0                   0                   0
    tauc_Pt12        -1.406028053         4.058804748                   0                   0                   0                   0                   0
    tauc_Pt13       1.40598594099         2.435239085       3.28705224602                   0                   0                   0                   0
    tauc_Pt14       2.81205610599         3.246985446       1.64352612299                   0                   0                   0                   0
    tauc_Pt15          1.40594383         4.058804748                   0                   0                   0                   0                   0
    tauc_Pt16         4.218042298         2.435239085       3.28705224602                   0                   0                   0                   0
    tauc_Pt17       5.62402823899         3.246985446       1.64352612299                   0                   0                   0                   0
    tauc_Pt18       4.21799993501         4.058804748                   0                   0                   0                   0                   0
    tauc_Pt19        5.6239857503         4.870551327       3.28705224602                   0                   0                   0                   0
    tauc_Pt20        -1.406028053       5.68229747101       1.64352612299                   0                   0                   0                   0
    tauc_Pt21         -2.81201412          6.49404405                   0                   0                   0                   0                   0
    tauc_Pt22  -4.22369999113e-05         4.870551327       3.28705224602                   0                   0                   0                   0
    tauc_Pt23         1.406028053       5.68229747101       1.64352612299                   0                   0                   0                   0
    tauc_Pt24  -4.22370033495e-05          6.49404405                   0                   0                   0                   0                   0
    tauc_Pt25       2.81201411999         4.870551327       3.28705224602                   0                   0                   0                   0
    tauc_Pt26       4.21800018699       5.68229747101       1.64352612299                   0                   0                   0                   0
    tauc_Pt27       2.81201386799          6.49404405                   0                   0                   0                   0                   0


                          Volume (Bohr^3) = 10477.6263259
                             Volume (A^3) = 1552.62217762

 Lattice vectors: (Cartesian coordinate: in unit of a_0)
        +8.4359998703                  +0                  +0
        -4.2179999352        +7.305790194                  +0
                   +0                  +0      +25.1919994354
 Reciprocal vectors: (Cartesian coordinate: in unit of 2 pi/a_0)
      +0.118539594046    +0.0684388665331                  -0
                   +0     +0.136877733065                  -0
                   +0                  -0    +0.0396951422043




 >>>>>>>>>>>>>>>>>>>>>>>>>>>>>>>>>>>>>>>>>>>>>>>>>>>>>>>>>>>>>>>>>>>>>>
 |                                                                    |
 | Reading pseudopotentials files:                                    |
 | The pseudopotential file is in UPF format. The 'NC' indicates that |
 | the type of pseudopotential is 'norm conserving'. Functional of    |
 | exchange and correlation is decided by 4 given parameters in UPF   |
 | file.  We also read in the 'core correction' if there exists.      |
 | Also we can read the valence electrons number and the maximal      |
 | angular momentum used in this pseudopotential. We also read in the |
 | trail wave function, trail atomic density and local-pseudopotential|
 | on logrithmic grid. The non-local pseudopotential projector is also|
 | read in if there is any.                                           |
 |                                                                    |
 <<<<<<<<<<<<<<<<<<<<<<<<<<<<<<<<<<<<<<<<<<<<<<<<<<<<<<<<<<<<<<<<<<<<<<




                PAO radial cut off (Bohr) = 15

 Read in pseudopotential file is Pt_ONCV_PBE-1.0.upf
                     pseudopotential type = NC
          exchange-correlation functional = PBE
                 nonlocal core correction = 0
                        valence electrons = 18
                                     lmax = 3
                           number of zeta = 0
                     number of projectors = 8
                           L of projector = 0
                           L of projector = 0
                           L of projector = 1
                           L of projector = 1
                           L of projector = 2
                           L of projector = 2
                           L of projector = 3
                           L of projector = 3
     initial pseudo atomic orbital number = 0
                                   NLOCAL = 243

%%%%%%%%%%%%%%%%%%%%%%%%%%%%%%%%%%%%%%%%%%%%%%%%%%%%%%%%%%%%%%%%%%%%%%%
 Warning: number valence electrons > 10 for Pt: [Xe] 4f14 5d9 6s1
 Please make sure the pseudopential file is what you need
%%%%%%%%%%%%%%%%%%%%%%%%%%%%%%%%%%%%%%%%%%%%%%%%%%%%%%%%%%%%%%%%%%%%%%%
                  




 >>>>>>>>>>>>>>>>>>>>>>>>>>>>>>>>>>>>>>>>>>>>>>>>>>>>>>>>>>>>>>>>>>>>>>
 |                                                                    |
 | Setup plane waves of charge/potential:                             |
 | Use the energy cutoff and the lattice vectors to generate the      |
 | dimensions of FFT grid. The number of FFT grid on each processor   |
 | is 'nrxx'. The number of plane wave basis in reciprocal space is   |
 | different for charege/potential and wave functions. We also set    |
 | the 'sticks' for the parallel of FFT. The number of plane waves    |
 | is 'npw' in each processor.                                        |
 <<<<<<<<<<<<<<<<<<<<<<<<<<<<<<<<<<<<<<<<<<<<<<<<<<<<<<<<<<<<<<<<<<<<<<





 SETUP THE PLANE WAVE BASIS
 energy cutoff for charge/potential (unit:Ry) = 240
          [fft grid for charge/potential] = 80, 80, 240
                      [fft grid division] = 1, 1, 1
      [big fft grid for charge/potential] = 80, 80, 240
                                     nbxx = 96000
                                     nrxx = 96000

 SETUP PLANE WAVES FOR CHARGE/POTENTIAL
                    number of plane waves = 657685
                         number of sticks = 4195

 PARALLEL PW FOR CHARGE/POTENTIAL
     PROC   COLUMNS(POT)             PW
        1            262          41106
        2            262          41106
        3            263          41111
        4            263          41111
        5            263          41111
        6            262          41108
        7            262          41104
        8            262          41104
        9            262          41102
       10            262          41102
       11            262          41102
       12            262          41104
       13            262          41104
       14            262          41104
       15            262          41104
       16            262          41102
 --------------- sum -------------------
       16           4195         657685
                            number of |g| = 15452
                                  max |g| = 21.7092295846
                                  min |g| = 0.0749420552356

 SETUP THE ELECTRONS NUMBER
            electron number of element Pt = 18
      total electron number of element Pt = 486
                           occupied bands = 243
                                   NBANDS = 291
 DONE : SETUP UNITCELL Time : 0.0587044316385 (SEC)





 >>>>>>>>>>>>>>>>>>>>>>>>>>>>>>>>>>>>>>>>>>>>>>>>>>>>>>>>>>>>>>>>>>>>>>
 |                                                                    |
 | Setup K-points                                                     |
 | We setup the k-points according to input parameters.               |
 | The reduced k-points are set according to symmetry operations.     |
 | We treat the spin as another set of k-points.                      |
 |                                                                    |
 <<<<<<<<<<<<<<<<<<<<<<<<<<<<<<<<<<<<<<<<<<<<<<<<<<<<<<<<<<<<<<<<<<<<<<





 SETUP K-POINTS
                                    nspin = 1
                   Input type of k points = Monkhorst-Pack(Gamma)
                                   nkstot = 1
                               nkstot_ibz = 1
      IBZ             DirectX             DirectY             DirectZ              Weight    ibz2bz
        1                   0                   0                   0                   1         0
                               nkstot now = 1

  KPOINTS            DIRECT_X            DIRECT_Y            DIRECT_Z              WEIGHT
        1                   0                   0                   0                   1

           k-point number in this process = 1
       minimum distributed K point number = 1

  KPOINTS         CARTESIAN_X         CARTESIAN_Y         CARTESIAN_Z              WEIGHT
        1                   0                   0                   0                   2

  KPOINTS            DIRECT_X            DIRECT_Y            DIRECT_Z              WEIGHT
        1                   0                   0                   0                   2
 DONE : INIT K-POINTS Time : 0.0589675457873 (SEC)





 >>>>>>>>>>>>>>>>>>>>>>>>>>>>>>>>>>>>>>>>>>>>>>>>>>>>>>>>>>>>>>>>>>>>>>
 |                                                                    |
 | Setup plane waves of wave functions:                               |
 | Use the energy cutoff and the lattice vectors to generate the      |
 | dimensions of FFT grid. The number of FFT grid on each processor   |
 | is 'nrxx'. The number of plane wave basis in reciprocal space is   |
 | different for charege/potential and wave functions. We also set    |
 | the 'sticks' for the parallel of FFT. The number of plane wave of  |
 | each k-point is 'npwk[ik]' in each processor                       |
 <<<<<<<<<<<<<<<<<<<<<<<<<<<<<<<<<<<<<<<<<<<<<<<<<<<<<<<<<<<<<<<<<<<<<<





 SETUP PLANE WAVES FOR WAVE FUNCTIONS
     energy cutoff for wavefunc (unit:Ry) = 60
            [fft grid for wave functions] = 80, 80, 240
                    number of plane waves = 82245
                         number of sticks = 1045

 PARALLEL PW FOR WAVE FUNCTIONS
     PROC   COLUMNS(POT)             PW
        1             65           5139
        2             65           5139
        3             65           5139
        4             65           5139
        5             65           5139
        6             65           5139
        7             65           5139
        8             65           5143
        9             65           5143
       10             65           5143
       11             65           5139
       12             65           5139
       13             65           5139
       14             68           5142
       15             66           5142
       16             66           5142
 --------------- sum -------------------
       16           1045          82245
 DONE : INIT PLANEWAVE Time : 0.0704665514897 (SEC)

 DONE : INIT CHARGE Time : 0.10259487323 (SEC)

                                     npwx = 5139

 SETUP NONLOCAL PSEUDOPOTENTIALS IN PLANE WAVE BASIS
 Pt non-local projectors:
 projector 1 L=0
 projector 2 L=0
 projector 3 L=1
 projector 4 L=1
 projector 5 L=2
 projector 6 L=2
 projector 7 L=3
 projector 8 L=3
      TOTAL NUMBER OF NONLOCAL PROJECTORS = 864
 DONE : LOCAL POTENTIAL Time : 0.288743170527 (SEC)


 Init Non-Local PseudoPotential table : 
 Init Non-Local-Pseudopotential done.
 DONE : NON-LOCAL POTENTIAL Time : 0.316642651494 (SEC)



 Adding external electric field: 
            Amplitute of Efield (Hartree) = 0.005
                 Potential amplitute (Ry) = 0.428453784341
                      Total length (Bohr) = 42.8453784341
                                 init_chg = atomic
 DONE : INIT POTENTIAL Time : 0.524814 (SEC)


 Make real space PAO into reciprocal space.
       max mesh points in Pseudopotential = 601
     dq(describe PAO in reciprocal space) = 0.01
                                    max q = 934

 number of pseudo atomic orbitals for Pt is 0
 DONE : INIT BASIS Time : 0.525924 (SEC)


 -------------------------------------------
 SELF-CONSISTENT
 -------------------------------------------

 PW ALGORITHM --------------- ION=   1  ELEC=   1--------------------------------
 Notice: Threshold on eigenvalues was too large.
 hsover_error=4.86 > DRHO=2.69267
 Origin diag_ethr = 0.01
 New    diag_ethr = 0.000554048

 Density error is 4.37696075554
                          Error Threshold = 0.000554047862793

       Energy                       Rydberg                            eV
   E_KohnSham                -6544.29765275                -89039.7374854
     E_Harris                -6546.88499603                -89074.9400967
      E_Fermi              -0.0351817724238               -0.478672570703

 PW ALGORITHM --------------- ION=   1  ELEC=   2--------------------------------

 Density error is 216.500855569
                          Error Threshold = 0.000900609208959

       Energy                       Rydberg                            eV
   E_KohnSham                -6527.21516442                -88807.3183081
     E_Harris                -6556.11660093                -89200.5425251
      E_Fermi               +0.286389251307                +3.89652566373

 PW ALGORITHM --------------- ION=   1  ELEC=   3--------------------------------

 Density error is 92.1403849225
                          Error Threshold = 0.000900609208959

       Energy                       Rydberg                            eV
   E_KohnSham                -6542.88990355                 -89020.584075
     E_Harris                -6550.87500814                -89129.2269965
      E_Fermi               +0.130246232909                 +1.7720909106

 PW ALGORITHM --------------- ION=   1  ELEC=   4--------------------------------

 Density error is 1.45242151458
                          Error Threshold = 0.000900609208959

       Energy                       Rydberg                            eV
   E_KohnSham                -6546.79724212                -89073.7461436
     E_Harris                -6546.92524454                -89075.4877057
      E_Fermi              -0.0921944244543                -1.25436949641

 PW ALGORITHM --------------- ION=   1  ELEC=   5--------------------------------

 Density error is 2.67876651838
                          Error Threshold = 0.000298852163493

       Energy                       Rydberg                            eV
   E_KohnSham                -6546.68895479                -89072.2728188
     E_Harris                -6546.98054815                  -89076.24015
      E_Fermi                -0.12067624704                  -1.641884573

 PW ALGORITHM --------------- ION=   1  ELEC=   6--------------------------------

 Density error is 2.95950788922
                          Error Threshold = 0.000298852163493

       Energy                       Rydberg                            eV
   E_KohnSham                 -6546.6147232                -89071.2628462
     E_Harris                -6546.86897956                -89074.7221815
      E_Fermi               -0.073900763173                 -1.0054714657

 PW ALGORITHM --------------- ION=   1  ELEC=   7--------------------------------

 Density error is 1.93126654125
                          Error Threshold = 0.000298852163493

       Energy                       Rydberg                            eV
   E_KohnSham                -6546.57071796                -89070.6641242
     E_Harris                -6546.73832035                -89072.9444717
      E_Fermi              -0.0259338090739                -0.35284757425

 PW ALGORITHM --------------- ION=   1  ELEC=   8--------------------------------

 Density error is 0.34751033095
                          Error Threshold = 0.000298852163493

       Energy                       Rydberg                            eV
   E_KohnSham                -6546.58868919                -89070.9086354
     E_Harris                -6546.63580821                -89071.5497225
      E_Fermi              -0.0282210816902                -0.38396751471

 PW ALGORITHM --------------- ION=   1  ELEC=   9--------------------------------

 Density error is 0.410164307781
                          Error Threshold = 7.1504183323e-05

       Energy                       Rydberg                            eV
   E_KohnSham                -6546.62095586                -89071.3476459
     E_Harris                -6546.63111986                -89071.4859342
      E_Fermi              -0.0186626129562               -0.253917875773

 PW ALGORITHM --------------- ION=   1  ELEC=  10--------------------------------

 Density error is 0.379745873892
                          Error Threshold = 7.1504183323e-05

       Energy                       Rydberg                            eV
   E_KohnSham                 -6546.5933572                -89070.9721469
     E_Harris                -6546.62802623                -89071.4438433
      E_Fermi              -0.0169814708025               -0.231044763334

 PW ALGORITHM --------------- ION=   1  ELEC=  11--------------------------------

 Density error is 0.0475700445178
                          Error Threshold = 7.1504183323e-05

       Energy                       Rydberg                            eV
   E_KohnSham                -6546.59262458                 -89070.962179
     E_Harris                -6546.60838033                 -89071.176547
      E_Fermi             -0.00265041811621              -0.0360607884629

 PW ALGORITHM --------------- ION=   1  ELEC=  12--------------------------------

 Density error is 3.02703329791
                          Error Threshold = 9.78807500366e-06

       Energy                       Rydberg                            eV
   E_KohnSham                -6546.48019372                -89069.4324787
     E_Harris                -6546.70011344                  -89072.42464
      E_Fermi              +0.0287642521104                +0.39135772741

 PW ALGORITHM --------------- ION=   1  ELEC=  13--------------------------------

 Density error is 0.0694974582414
                          Error Threshold = 9.78807500366e-06

       Energy                       Rydberg                            eV
   E_KohnSham                -6546.58029426                -89070.7944164
     E_Harris                -6546.60409293                 -89071.118214
      E_Fermi              +0.0179865139943               +0.244719077479

 PW ALGORITHM --------------- ION=   1  ELEC=  14--------------------------------

 Density error is 0.349246911128
                          Error Threshold = 9.78807500366e-06

       Energy                       Rydberg                            eV
   E_KohnSham                -6546.56965548                -89070.6496685
     E_Harris                -6546.62107283                -89071.3492374
      E_Fermi              +0.0140391628078               +0.191012609335

 PW ALGORITHM --------------- ION=   1  ELEC=  15--------------------------------

 Density error is 0.19180305466
                          Error Threshold = 9.78807500366e-06

       Energy                       Rydberg                            eV
   E_KohnSham                -6546.58004307                -89070.7909988
     E_Harris                -6546.60705875                 -89071.158566
      E_Fermi              +0.0313619746153               +0.426701555299

 PW ALGORITHM --------------- ION=   1  ELEC=  16--------------------------------

 Density error is 0.0812798414383
                          Error Threshold = 9.78807500366e-06

       Energy                       Rydberg                            eV
   E_KohnSham                -6546.59946124                -89071.0551966
     E_Harris                -6546.59910641                -89071.0503689
      E_Fermi              +0.0326262961753               +0.443903532619

 PW ALGORITHM --------------- ION=   1  ELEC=  17--------------------------------

 Density error is 0.148478037329
                          Error Threshold = 9.78807500366e-06

       Energy                       Rydberg                            eV
   E_KohnSham                -6546.59624397                -89071.0114233
     E_Harris                -6546.60124775                -89071.0795033
      E_Fermi              +0.0311512265929               +0.423834181352

 PW ALGORITHM --------------- ION=   1  ELEC=  18--------------------------------

 Density error is 0.0455855352234
                          Error Threshold = 9.78807500366e-06

       Energy                       Rydberg                            eV
   E_KohnSham                 -6546.5937453                -89070.9774272
     E_Harris                -6546.59775542                -89071.0319877
      E_Fermi              +0.0324577802789               +0.441610756225

 PW ALGORITHM --------------- ION=   1  ELEC=  19--------------------------------

 Density error is 0.0170619132285
                          Error Threshold = 9.37973975789e-06

       Energy                       Rydberg                            eV
   E_KohnSham                -6546.59481627                -89070.9919985
     E_Harris                 -6546.5971916                -89071.0243165
      E_Fermi              +0.0342479921194               +0.465967837883

 PW ALGORITHM --------------- ION=   1  ELEC=  20--------------------------------

 Density error is 0.00277956223728
                          Error Threshold = 3.51068173426e-06

       Energy                       Rydberg                            eV
   E_KohnSham                -6546.59621848                -89071.0110765
     E_Harris                 -6546.5963045                 -89071.012247
      E_Fermi              +0.0342834198408               +0.466449856761

 PW ALGORITHM --------------- ION=   1  ELEC=  21--------------------------------

 Density error is 0.00352712137732
                          Error Threshold = 5.71926386271e-07

       Energy                       Rydberg                            eV
   E_KohnSham                -6546.59610418                -89071.0095215
     E_Harris                -6546.59635497                -89071.0129336
      E_Fermi              +0.0356797629944               +0.485448080013

 PW ALGORITHM --------------- ION=   1  ELEC=  22--------------------------------

 Density error is 0.00050615026882
                          Error Threshold = 5.71926386271e-07

       Energy                       Rydberg                            eV
   E_KohnSham                -6546.59613008                -89071.0098738
     E_Harris                -6546.59623145                 -89071.011253
      E_Fermi              +0.0355609035357               +0.483830914114

 PW ALGORITHM --------------- ION=   1  ELEC=  23--------------------------------

 Density error is 0.00116761507328
                          Error Threshold = 1.04146145848e-07

       Energy                       Rydberg                            eV
   E_KohnSham                -6546.59614316                -89071.0100518
     E_Harris                -6546.59628561                -89071.0119899
      E_Fermi              +0.0354391340274               +0.482174154958

 PW ALGORITHM --------------- ION=   1  ELEC=  24--------------------------------

 Density error is 0.000119388869039
                          Error Threshold = 1.04146145848e-07

       Energy                       Rydberg                            eV
   E_KohnSham                -6546.59620404                  -89071.01088
     E_Harris                -6546.59621455                -89071.0110232
      E_Fermi              +0.0356978259779               +0.485693839511

 PW ALGORITHM --------------- ION=   1  ELEC=  25--------------------------------

 Density error is 0.000164850137061
                          Error Threshold = 2.45656109134e-08

       Energy                       Rydberg                            eV
   E_KohnSham                -6546.59619575                -89071.0107673
     E_Harris                -6546.59621946                -89071.0110899
      E_Fermi              +0.0358089108992               +0.487205227404

 PW ALGORITHM --------------- ION=   1  ELEC=  26--------------------------------

 Density error is 9.35228028363e-05
                          Error Threshold = 2.45656109134e-08

       Energy                       Rydberg                            eV
   E_KohnSham                -6546.59620788                -89071.0109323
     E_Harris                -6546.59621488                -89071.0110276
      E_Fermi               +0.035836538555               +0.487581120945

 PW ALGORITHM --------------- ION=   1  ELEC=  27--------------------------------

 Density error is 5.53424119908e-05
                          Error Threshold = 1.92433750692e-08

       Energy                       Rydberg                            eV
   E_KohnSham                -6546.59620648                -89071.0109133
     E_Harris                 -6546.5962147                -89071.0110252
      E_Fermi              +0.0358157353618                +0.48729807898

 PW ALGORITHM --------------- ION=   1  ELEC=  28--------------------------------

 Density error is 5.81400506469e-05
                          Error Threshold = 1.13873275701e-08

       Energy                       Rydberg                            eV
   E_KohnSham                -6546.59620824                -89071.0109373
     E_Harris                -6546.59621529                -89071.0110331
      E_Fermi              +0.0358426395713                +0.48766412953

 PW ALGORITHM --------------- ION=   1  ELEC=  29--------------------------------

 Density error is 8.71600699876e-06
                          Error Threshold = 1.13873275701e-08

       Energy                       Rydberg                            eV
   E_KohnSham                -6546.59621027                -89071.0109649
     E_Harris                -6546.59621176                -89071.0109851
      E_Fermi              +0.0359205997852               +0.488724832656

 PW ALGORITHM --------------- ION=   1  ELEC=  30--------------------------------

 Density error is 1.75345904839e-05
                          Error Threshold = 1.79341707793e-09

       Energy                       Rydberg                            eV
   E_KohnSham                -6546.59621064                  -89071.01097
     E_Harris                -6546.59621233                -89071.0109929
      E_Fermi              +0.0359495389954               +0.489118570811

 PW ALGORITHM --------------- ION=   1  ELEC=  31--------------------------------

 Density error is 3.16734892912e-07
                          Error Threshold = 1.79341707793e-09

       Energy                       Rydberg                            eV
   E_KohnSham                -6546.59621145                 -89071.010981
     E_Harris                -6546.59621153                 -89071.010982
      E_Fermi              +0.0359487650559               +0.489108040823

 PW ALGORITHM --------------- ION=   1  ELEC=  32--------------------------------

 Density error is 5.49578542372e-07
                          Error Threshold = 6.51717886649e-11

       Energy                       Rydberg                            eV
   E_KohnSham                -6546.59621144                -89071.0109808
     E_Harris                -6546.59621156                -89071.0109824
      E_Fermi              +0.0359448420845                +0.48905466606

 PW ALGORITHM --------------- ION=   1  ELEC=  33--------------------------------

 Density error is 8.46958736151e-07
                          Error Threshold = 6.51717886649e-11

       Energy                       Rydberg                            eV
   E_KohnSham                -6546.59621145                 -89071.010981
     E_Harris                -6546.59621158                -89071.0109827
      E_Fermi              +0.0359533134691               +0.489169925159

 PW ALGORITHM --------------- ION=   1  ELEC=  34--------------------------------

 Density error is 4.21558361324e-07
                          Error Threshold = 6.51717886649e-11

       Energy                       Rydberg                            eV
   E_KohnSham                -6546.59621151                -89071.0109817
     E_Harris                -6546.59621154                -89071.0109822
      E_Fermi              +0.0359547283045               +0.489189174983

 PW ALGORITHM --------------- ION=   1  ELEC=  35--------------------------------

 Density error is 4.06576969283e-08
                          Error Threshold = 6.51717886649e-11

       Energy                       Rydberg                            eV
   E_KohnSham                -6546.59621149                -89071.0109815
     E_Harris                -6546.59621153                 -89071.010982
       E_band                -1087.32210642                -14793.7762086
   E_one_elec                -71055.6838387                -966762.175493
    E_Hartree                +35398.6450101                +481623.273616
         E_xc                -634.364166778                 -8630.9672752
      E_Ewald                +29678.9985233                 +403803.49085
      E_entropy(-TS)       -0.0749083107075                -1.01917985318
      E_descf                            +0                            +0
     E_efield                +65.8831689157                 +896.38649955
        E_exx                            +0                            +0
      E_Fermi               +0.035956574524               +0.489214294088

 charge density convergence is achieved
 final etot is -89071.0109815 eV

 STATE ENERGY(eV) AND OCCUPATIONS    NSPIN == 1
 1/1 kpoint (Cartesian) = 0 0 0 (5139 pws)
       1       -98.9602        2.00000
       2       -98.9342        2.00000
       3       -98.9342        2.00000
       4       -98.9342        2.00000
       5       -98.9341        2.00000
       6       -98.9341        2.00000
       7       -98.9340        2.00000
       8       -98.9210        2.00000
       9       -98.9210        2.00000
      10       -97.8817        2.00000
      11       -97.8683        2.00000
      12       -97.8682        2.00000
      13       -97.8682        2.00000
      14       -97.8681        2.00000
      15       -97.8681        2.00000
      16       -97.8672        2.00000
      17       -97.8627        2.00000
      18       -97.8626        2.00000
      19       -97.8621        2.00000
      20       -97.8606        2.00000
      21       -97.8606        2.00000
      22       -97.8605        2.00000
      23       -97.8603        2.00000
      24       -97.8603        2.00000
      25       -97.8599        2.00000
      26       -97.8581        2.00000
      27       -97.8580        2.00000
      28       -53.9107        2.00000
      29       -53.8327        2.00000
      30       -53.8326        2.00000
      31       -53.8326        2.00000
      32       -53.8324        2.00000
      33       -53.8324        2.00000
      34       -53.8323        2.00000
      35       -53.7891        2.00000
      36       -53.7891        2.00000
      37       -53.5116        2.00000
      38       -53.5115        2.00000
      39       -53.5115        2.00000
      40       -53.5115        2.00000
      41       -53.5115        2.00000
      42       -53.5110        2.00000
      43       -53.4809        2.00000
      44       -53.4807        2.00000
      45       -53.4800        2.00000
      46       -53.4800        2.00000
      47       -53.1746        2.00000
      48       -53.1746        2.00000
      49       -53.1745        2.00000
      50       -53.1744        2.00000
      51       -53.1743        2.00000
      52       -53.1743        2.00000
      53       -53.0672        2.00000
      54       -53.0672        2.00000
      55       -52.3068        2.00000
      56       -52.2493        2.00000
      57       -52.2492        2.00000
      58       -52.2492        2.00000
      59       -52.2492        2.00000
      60       -52.2491        2.00000
      61       -52.2487        2.00000
      62       -52.1882        2.00000
      63       -52.1880        2.00000
      64       -52.1843        2.00000
      65       -52.1843        2.00000
      66       -52.1517        2.00000
      67       -52.1516        2.00000
      68       -52.1516        2.00000
      69       -52.1516        2.00000
      70       -52.1512        2.00000
      71       -52.1512        2.00000
      72       -52.1260        2.00000
      73       -52.1260        2.00000
      74       -51.9728        2.00000
      75       -51.9728        2.00000
      76       -51.9727        2.00000
      77       -51.9727        2.00000
      78       -51.9727        2.00000
      79       -51.9726        2.00000
      80       -51.9598        2.00000
      81       -51.9596        2.00000
      82       -51.9596        2.00000
      83       -51.9596        2.00000
      84       -51.9593        2.00000
      85       -51.9593        2.00000
      86       -51.9401        2.00000
      87       -51.9394        2.00000
      88       -51.9393        2.00000
      89       -51.9374        2.00000
      90       -51.9374        2.00000
      91       -51.8991        2.00000
      92       -51.8991        2.00000
      93       -51.8800        2.00000
      94       -51.8800        2.00000
      95       -51.8800        2.00000
      96       -51.8799        2.00000
      97       -51.8798        2.00000
      98       -51.8798        2.00000
      99       -51.8596        2.00000
     100       -51.8596        2.00000
     101       -51.8410        2.00000
     102       -51.8409        2.00000
     103       -51.8409        2.00000
     104       -51.8409        2.00000
     105       -51.8407        2.00000
     106       -51.8407        2.00000
     107       -51.8273        2.00000
     108       -51.8273        2.00000
     109       -10.5374        2.00000
     110       -8.48702        2.00000
     111       -8.48304        2.00000
     112       -8.48299        2.00000
     113       -8.48293        2.00000
     114       -8.48258        2.00000
     115       -8.48257        2.00000
     116       -8.48242        2.00000
     117       -7.78415        2.00000
     118       -7.78409        2.00000
     119       -7.78408        2.00000
     120       -7.78381        2.00000
     121       -7.78362        2.00000
     122       -7.78358        2.00000
     123       -7.24797        2.00000
     124       -7.24794        2.00000
     125       -7.24783        2.00000
     126       -7.24766        2.00000
     127       -7.24756        2.00000
     128       -7.24755        2.00000
     129       -7.23539        2.00000
     130       -7.13921        2.00000
     131       -7.13915        2.00000
     132       -7.13833        2.00000
     133       -7.13832        2.00000
     134       -6.98197        2.00000
     135       -6.98197        2.00000
     136       -6.38616        2.00000
     137       -6.38613        2.00000
     138       -6.36892        2.00000
     139       -6.36883        2.00000
     140       -6.36882        2.00000
     141       -6.36850        2.00000
     142       -6.12088        2.00000
     143       -6.12076        2.00000
     144       -6.12074        2.00000
     145       -6.12072        2.00000
     146       -6.11980        2.00000
     147       -6.11978        2.00000
     148       -5.96152        2.00000
     149       -5.96151        2.00000
     150       -5.96150        2.00000
     151       -5.96107        2.00000
     152       -5.96105        2.00000
     153       -5.96104        2.00000
     154       -5.47186        2.00000
     155       -5.47185        2.00000
     156       -5.10173        2.00000
     157       -5.10169        2.00000
     158       -5.10165        2.00000
     159       -5.10158        2.00000
     160       -5.10156        2.00000
     161       -5.10119        2.00000
     162       -3.59869        2.00000
     163       -3.59869        2.00000
     164       -3.27607        2.00000
     165       -3.27602        2.00000
     166       -3.27599        2.00000
     167       -3.27572        2.00000
     168       -3.27523        2.00000
     169       -3.27514        2.00000
     170       -3.27011        2.00000
     171       -3.27010        2.00000
     172       -3.06906        2.00000
     173       -3.06905        2.00000
     174       -2.99594        2.00000
     175       -2.99565        2.00000
     176       -2.99563        2.00000
     177       -2.99534        2.00000
     178       -2.99527        2.00000
     179       -2.99525        2.00000
     180       -2.95052        2.00000
     181       -2.95047        2.00000
     182       -2.94346        2.00000
     183       -2.94346        2.00000
     184       -2.94240        2.00000
     185       -2.94240        2.00000
     186       -2.70022        2.00000
     187       -2.59659        2.00000
     188       -2.59639        2.00000
     189       -2.59634        2.00000
     190       -2.59633        2.00000
     191       -2.59595        2.00000
     192       -2.59594        2.00000
     193       -2.06481        2.00000
     194       -2.06477        2.00000
     195       -2.06474        2.00000
     196       -2.06460        2.00000
     197       -2.06459        2.00000
     198       -2.06439        2.00000
     199       -1.44273        2.00000
     200       -1.44272        2.00000
     201       -1.44084        2.00000
     202       -1.44077        2.00000
     203       -1.44075        2.00000
     204       -1.44069        2.00000
     205       -1.44031        2.00000
     206       -1.44030        2.00000
     207       -1.15723        2.00000
     208       -1.14868        2.00000
     209       -1.14854        2.00000
     210       -1.14850        2.00000
     211       -1.14797        2.00000
     212       -1.14796        2.00000
     213       -1.14794        2.00000
     214      -0.688705        2.00000
     215      -0.688660        2.00000
     216      -0.688611        2.00000
     217      -0.688479        2.00000
     218      -0.687972        2.00000
     219      -0.687943        2.00000
     220      -0.412704        2.00000
     221      -0.412473        2.00000
     222      -0.410595        2.00000
     223      -0.410594        2.00000
     224      -0.265229        1.99991
     225      -0.265191        1.99991
     226     -0.0673756        1.99618
     227     -0.0671939        1.99617
     228     -0.0671793        1.99617
     229     -0.0670145        1.99616
     230     -0.0669506        1.99615
     231     -0.0667999        1.99614
     232     -0.0281824        1.99283
     233      0.0946485        1.95970
     234      0.0946569        1.95969
     235       0.100550        1.95661
     236       0.100642        1.95656
     237       0.215025        1.84584
     238       0.215035        1.84583
     239       0.306374        1.65801
     240       0.306395        1.65796
     241       0.306511        1.65765
     242       0.306533        1.65759
     243       0.306551        1.65754
     244       0.306552        1.65754
     245       0.811918      0.0935158
     246       0.811962      0.0934708
     247       0.812147      0.0932834
     248       0.812201      0.0932285
     249       0.812223      0.0932067
     250       0.812279      0.0931501
     251        2.22240        0.00000
     252        2.22245        0.00000
     253        2.43779        0.00000
     254        2.43782        0.00000
     255        2.43855        0.00000
     256        2.43864        0.00000
     257        2.43866        0.00000
     258        2.43875        0.00000
     259        2.97040        0.00000
     260        4.49923        0.00000
     261        4.49962        0.00000
     262        4.49964        0.00000
     263        4.49973        0.00000
     264        4.49980        0.00000
     265        4.49983        0.00000
     266        5.31607        0.00000
     267        5.31607        0.00000
     268        5.32042        0.00000
     269        5.32047        0.00000
     270        5.76192        0.00000
     271        5.76192        0.00000
     272        6.48757        0.00000
     273        7.44277        0.00000
     274        7.62804        0.00000
     275        7.62882        0.00000
     276        7.62883        0.00000
     277        7.62885        0.00000
     278        7.62897        0.00000
     279        7.62898        0.00000
     280        7.87813        0.00000
     281        7.87813        0.00000
     282        7.94246        0.00000
     283        7.94246        0.00000
     284        7.94709        0.00000
     285        7.94723        0.00000
     286        8.29847        0.00000
     287        9.30080        0.00000
     288        9.30081        0.00000
     289        9.30098        0.00000
     290        9.30099        0.00000
     291        9.30100        0.00000




 ><><><><><><><><><><><><><><><><><><><><><><

    TOTAL-FORCE (eV/Angstrom)

 ><><><><><><><><><><><><><><><><><><><><><><

     atom              x              y              z
      Pt1    +0.00245888    +0.00637661   +11.66408984
      Pt2    -0.02527302    -0.00754614    +0.05792439
      Pt3    -0.00204273    +0.00018122   -11.74914060
      Pt4    -0.00609573    -0.00004659   +11.70807961
      Pt5    -0.00218168    -0.00426217    +0.04477088
      Pt6    -0.00953521    -0.00460855   -11.75180765
      Pt7    +0.00437834    -0.00063495   +11.71002452
      Pt8    +0.02600586    -0.00454567    +0.05406658
      Pt9    +0.01207457    +0.00014288   -11.75346816
     Pt10    +0.00981200    +0.00204567   +11.70646780
     Pt11    -0.00294946    -0.00330562    +0.04549230
     Pt12    +0.00457455    -0.00182635   -11.74918608
     Pt13    -0.00835461    +0.00001706   +11.70823264
     Pt14    -0.01155681    +0.00302225    +0.04913167
     Pt15    -0.00697121    -0.00198326   -11.74971091
     Pt16    -0.00066114    +0.00184731   +11.71475995
     Pt17    +0.01098763    +0.00500533    +0.04398054
     Pt18    +0.00535559    +0.00848986   -11.75278215
     Pt19    +0.00373264    -0.00008124   +11.70539482
     Pt20    -0.00168264    -0.00483306    +0.04078259
     Pt21    -0.00324522    +0.00044569   -11.75158288
     Pt22    -0.00043864    -0.00934792   +11.70628643
     Pt23    -0.00247775    -0.00405657    +0.04215382
     Pt24    -0.00133265    -0.00714622   -11.75320961
     Pt25    -0.00261709    -0.00149682   +11.70923148
     Pt26    +0.00275109    +0.02420267    +0.05378165
     Pt27    +0.00528442    +0.00394457   -11.75376348


 --------------------------------------------
 !FINAL_ETOT_IS -89071.0109814717870904 eV
 --------------------------------------------






  |CLASS_NAME---------|NAME---------------|TIME(Sec)-----|CALLS----|AVG------|PER%-------
                                      total     1095.88474        17     64.46    100.00%
                 Driver         driver_line     1095.87700         1   1095.88    100.00%
              Potential            init_pot        0.20785         1      0.21      0.02%
               PW_Basis          recip2real        0.49132       186      0.00      0.04%
               PW_Basis    gathers_scatterp        0.23639       186      0.00      0.02%
                 Charge          atomic_rho        0.12181         1      0.12      0.01%
              Potential            v_of_rho        2.26738        36      0.06      0.21%
          XC_Functional                v_xc        2.06884        37      0.06      0.19%
               PW_Basis          real2recip        0.75011       296      0.00      0.07%
               PW_Basis    gatherp_scatters        0.36874       296      0.00      0.03%
           H_Hartree_pw           v_hartree        0.23741        36      0.01      0.02%
          ESolver_KS_PW                 Run     1094.39569         1   1094.40     99.86%
              HSolverPW               solve     1091.50682        36     30.32     99.60%
            pp_cell_vnl              getvnl        0.80248        37      0.02      0.07%
                 WF_igk              get_sk        0.12822      1026      0.00      0.01%
        DiagoIterAssist      diagH_subspace       44.02801        35      1.26      4.02%
             OperatorPW                hPsi      861.95505     32285      0.03     78.65%
               Operator          EkineticPW        0.65581     32285      0.00      0.06%
               Operator              VeffPW      117.78893     32285      0.00     10.75%
             PW_Basis_K          recip2real       62.95541     51462      0.00      5.74%
             PW_Basis_K    gathers_scatterp       22.86267     51462      0.00      2.09%
             PW_Basis_K          real2recip       41.95407     42435      0.00      3.83%
             PW_Basis_K    gatherp_scatters       10.80372     42435      0.00      0.99%
               Operator          NonlocalPW      742.70210     32285      0.02     67.77%
               Nonlocal     add_nonlocal_pp      371.50270     32285      0.01     33.90%
        DiagoIterAssist        diagH_LAPACK        1.12312        35      0.03      0.10%
                DiagoCG           diag_once     1027.90639        36     28.55     93.80%
            ElecStatePW            psiToRho       15.18808        36      0.42      1.39%
                 Charge             rho_mpi        1.74390        36      0.05      0.16%
                 Charge             mix_rho        0.35964        34      0.01      0.03%
                 Forces        cal_force_nl        0.66598         1      0.67      0.06%
 ----------------------------------------------------------------------------------------

 CLASS_NAME---------|NAME---------------|MEMORY(MB)--------
                                         48.0537
             wavefunc                 psi        22.8187
         Charge_Pulay                Rrho         5.8594
         Charge_Pulay               dRrho         5.1270
         Charge_Pulay                drho         5.1270
 ----------------------------------------------------------

 Start  Time  : Sun Sep 25 10:10:00 2022
 Finish Time  : Sun Sep 25 10:28:16 2022
 Total  Time  : 0 h 18 mins 16 secs 
