<UPF version="2.0.1">
  <PP_INFO>

 This pseudopotential file has been produced using the code
 ONCVPSP  (Optimized Norm-Conservinng Vanderbilt PSeudopotential)
 scalar-relativistic version 2.1.1, 03/26/2014 by D. R. Hamann
 The code is available through a link at URL www.mat-simresearch.com.
 Documentation with the package provides a full discription of the
 input data below.


 While it is not required under the terms of the GNU GPL, it is
 suggested that you cite D. R. Hamann, Phys. Rev. B 88, 085117 (2013)
 in any publication using these pseudopotentials.


 Copyright 2015 The Regents of the University of California
 
 This work is licensed under the Creative Commons Attribution-ShareAlike 
 4.0 International License. To view a copy of this license, visit 
 http://creativecommons.org/licenses/by-sa/4.0/ or send a letter to 
 Creative Commons, PO Box 1866, Mountain View, CA 94042, USA.
 
 This pseudopotential is part of the Schlipf-Gygi norm-conserving 
 pseudopotential library. Its construction parameters were tuned to 
 reproduce materials of a training set with very high accuracy and 
 should be suitable as a general purpose pseudopotential to treat a 
 variety of different compounds. For details of the construction and 
 testing of the pseudopotential please refer to:
 
 [insert reference to paper here]
 
 We kindly ask that you include this reference in all publications 
 associated to this pseudopotential.


    <PP_INPUTFILE>
# ATOM AND REFERENCE CONFIGURATION
# atsym  z    nc    nv    iexc   psfile
  Pb 82.00    12     3     4      upf
#
#   n    l    f        energy (Ha)
    1    0    2.00
    2    0    2.00
    2    1    6.00
    3    0    2.00
    3    1    6.00
    3    2   10.00
    4    0    2.00
    4    1    6.00
    4    2   10.00
    4    3   14.00
    5    0    2.00
    5    1    6.00
    5    2   10.00
    6    0    2.00
    6    1    2.00
#
# PSEUDOPOTENTIAL AND OPTIMIZATION
# lmax
    3
#
#   l,   rc,     ep,   ncon, nbas, qcut
    0   3.55686  -0.44247    5    8   3.96156
    1   3.59954  -0.12854    5    8   3.58114
    2   3.31119  -0.77825    5    8   6.04705
    3   3.59954   0.26797    5    8   5.62297
#
# LOCAL POTENTIAL
# lloc, lpopt,  rc(5),   dvloc0
    4    5   2.90401      0.00000
#
# VANDERBILT-KLEINMAN-BYLANDER PROJECTORs
# l, nproj, debl
    0    2   1.14841
    1    2   1.10423
    2    2   1.17152
    3    2   1.22641
#
# MODEL CORE CHARGE
# icmod, fcfact
    0   0.00000
#
# LOG DERIVATIVE ANALYSIS
# epsh1, epsh2, depsh
   -5.00    3.00    0.02
#
# OUTPUT GRID
# rlmax, drl
    6.00    0.01
#
# TEST CONFIGURATIONS
# ncnf
    0
# nvcnf
#   n    l    f
    </PP_INPUTFILE>
  </PP_INFO>
  <!--                               -->
  <!-- END OF HUMAN READABLE SECTION -->
  <!--                               -->
    <PP_HEADER
       generated="Generated using ONCVPSP code by D. R. Hamann"
       author="Martin Schlipf and Francois Gygi"
       date="150105"
       comment=""
       element="Pb"
       pseudo_type="NC"
       relativistic="scalar"
       is_ultrasoft="F"
       is_paw="F"
       is_coulomb="F"
       has_so="F"
       has_wfc="F"
       has_gipaw="F"
       core_correction="F"
       functional="PBE"
       z_valence="   14.00"
       total_psenergy="  -5.63174020180E+01"
       rho_cutoff="   6.01000000000E+00"
       l_max="3"
       l_local="-1"
       mesh_size="   602"
       number_of_wfc="0"
       number_of_proj="8"/>
 <PP_MESH>
   <PP_R type="real"  size=" 602" columns="8">
    0.0000    0.0100    0.0200    0.0300    0.0400    0.0500    0.0600    0.0700
    0.0800    0.0900    0.1000    0.1100    0.1200    0.1300    0.1400    0.1500
    0.1600    0.1700    0.1800    0.1900    0.2000    0.2100    0.2200    0.2300
    0.2400    0.2500    0.2600    0.2700    0.2800    0.2900    0.3000    0.3100
    0.3200    0.3300    0.3400    0.3500    0.3600    0.3700    0.3800    0.3900
    0.4000    0.4100    0.4200    0.4300    0.4400    0.4500    0.4600    0.4700
    0.4800    0.4900    0.5000    0.5100    0.5200    0.5300    0.5400    0.5500
    0.5600    0.5700    0.5800    0.5900    0.6000    0.6100    0.6200    0.6300
    0.6400    0.6500    0.6600    0.6700    0.6800    0.6900    0.7000    0.7100
    0.7200    0.7300    0.7400    0.7500    0.7600    0.7700    0.7800    0.7900
    0.8000    0.8100    0.8200    0.8300    0.8400    0.8500    0.8600    0.8700
    0.8800    0.8900    0.9000    0.9100    0.9200    0.9300    0.9400    0.9500
    0.9600    0.9700    0.9800    0.9900    1.0000    1.0100    1.0200    1.0300
    1.0400    1.0500    1.0600    1.0700    1.0800    1.0900    1.1000    1.1100
    1.1200    1.1300    1.1400    1.1500    1.1600    1.1700    1.1800    1.1900
    1.2000    1.2100    1.2200    1.2300    1.2400    1.2500    1.2600    1.2700
    1.2800    1.2900    1.3000    1.3100    1.3200    1.3300    1.3400    1.3500
    1.3600    1.3700    1.3800    1.3900    1.4000    1.4100    1.4200    1.4300
    1.4400    1.4500    1.4600    1.4700    1.4800    1.4900    1.5000    1.5100
    1.5200    1.5300    1.5400    1.5500    1.5600    1.5700    1.5800    1.5900
    1.6000    1.6100    1.6200    1.6300    1.6400    1.6500    1.6600    1.6700
    1.6800    1.6900    1.7000    1.7100    1.7200    1.7300    1.7400    1.7500
    1.7600    1.7700    1.7800    1.7900    1.8000    1.8100    1.8200    1.8300
    1.8400    1.8500    1.8600    1.8700    1.8800    1.8900    1.9000    1.9100
    1.9200    1.9300    1.9400    1.9500    1.9600    1.9700    1.9800    1.9900
    2.0000    2.0100    2.0200    2.0300    2.0400    2.0500    2.0600    2.0700
    2.0800    2.0900    2.1000    2.1100    2.1200    2.1300    2.1400    2.1500
    2.1600    2.1700    2.1800    2.1900    2.2000    2.2100    2.2200    2.2300
    2.2400    2.2500    2.2600    2.2700    2.2800    2.2900    2.3000    2.3100
    2.3200    2.3300    2.3400    2.3500    2.3600    2.3700    2.3800    2.3900
    2.4000    2.4100    2.4200    2.4300    2.4400    2.4500    2.4600    2.4700
    2.4800    2.4900    2.5000    2.5100    2.5200    2.5300    2.5400    2.5500
    2.5600    2.5700    2.5800    2.5900    2.6000    2.6100    2.6200    2.6300
    2.6400    2.6500    2.6600    2.6700    2.6800    2.6900    2.7000    2.7100
    2.7200    2.7300    2.7400    2.7500    2.7600    2.7700    2.7800    2.7900
    2.8000    2.8100    2.8200    2.8300    2.8400    2.8500    2.8600    2.8700
    2.8800    2.8900    2.9000    2.9100    2.9200    2.9300    2.9400    2.9500
    2.9600    2.9700    2.9800    2.9900    3.0000    3.0100    3.0200    3.0300
    3.0400    3.0500    3.0600    3.0700    3.0800    3.0900    3.1000    3.1100
    3.1200    3.1300    3.1400    3.1500    3.1600    3.1700    3.1800    3.1900
    3.2000    3.2100    3.2200    3.2300    3.2400    3.2500    3.2600    3.2700
    3.2800    3.2900    3.3000    3.3100    3.3200    3.3300    3.3400    3.3500
    3.3600    3.3700    3.3800    3.3900    3.4000    3.4100    3.4200    3.4300
    3.4400    3.4500    3.4600    3.4700    3.4800    3.4900    3.5000    3.5100
    3.5200    3.5300    3.5400    3.5500    3.5600    3.5700    3.5800    3.5900
    3.6000    3.6100    3.6200    3.6300    3.6400    3.6500    3.6600    3.6700
    3.6800    3.6900    3.7000    3.7100    3.7200    3.7300    3.7400    3.7500
    3.7600    3.7700    3.7800    3.7900    3.8000    3.8100    3.8200    3.8300
    3.8400    3.8500    3.8600    3.8700    3.8800    3.8900    3.9000    3.9100
    3.9200    3.9300    3.9400    3.9500    3.9600    3.9700    3.9800    3.9900
    4.0000    4.0100    4.0200    4.0300    4.0400    4.0500    4.0600    4.0700
    4.0800    4.0900    4.1000    4.1100    4.1200    4.1300    4.1400    4.1500
    4.1600    4.1700    4.1800    4.1900    4.2000    4.2100    4.2200    4.2300
    4.2400    4.2500    4.2600    4.2700    4.2800    4.2900    4.3000    4.3100
    4.3200    4.3300    4.3400    4.3500    4.3600    4.3700    4.3800    4.3900
    4.4000    4.4100    4.4200    4.4300    4.4400    4.4500    4.4600    4.4700
    4.4800    4.4900    4.5000    4.5100    4.5200    4.5300    4.5400    4.5500
    4.5600    4.5700    4.5800    4.5900    4.6000    4.6100    4.6200    4.6300
    4.6400    4.6500    4.6600    4.6700    4.6800    4.6900    4.7000    4.7100
    4.7200    4.7300    4.7400    4.7500    4.7600    4.7700    4.7800    4.7900
    4.8000    4.8100    4.8200    4.8300    4.8400    4.8500    4.8600    4.8700
    4.8800    4.8900    4.9000    4.9100    4.9200    4.9300    4.9400    4.9500
    4.9600    4.9700    4.9800    4.9900    5.0000    5.0100    5.0200    5.0300
    5.0400    5.0500    5.0600    5.0700    5.0800    5.0900    5.1000    5.1100
    5.1200    5.1300    5.1400    5.1500    5.1600    5.1700    5.1800    5.1900
    5.2000    5.2100    5.2200    5.2300    5.2400    5.2500    5.2600    5.2700
    5.2800    5.2900    5.3000    5.3100    5.3200    5.3300    5.3400    5.3500
    5.3600    5.3700    5.3800    5.3900    5.4000    5.4100    5.4200    5.4300
    5.4400    5.4500    5.4600    5.4700    5.4800    5.4900    5.5000    5.5100
    5.5200    5.5300    5.5400    5.5500    5.5600    5.5700    5.5800    5.5900
    5.6000    5.6100    5.6200    5.6300    5.6400    5.6500    5.6600    5.6700
    5.6800    5.6900    5.7000    5.7100    5.7200    5.7300    5.7400    5.7500
    5.7600    5.7700    5.7800    5.7900    5.8000    5.8100    5.8200    5.8300
    5.8400    5.8500    5.8600    5.8700    5.8800    5.8900    5.9000    5.9100
    5.9200    5.9300    5.9400    5.9500    5.9600    5.9700    5.9800    5.9900
    6.0000    6.0100
   </PP_R>
   <PP_RAB type="real"  size=" 602" columns="8">
    0.0100    0.0100    0.0100    0.0100    0.0100    0.0100    0.0100    0.0100
    0.0100    0.0100    0.0100    0.0100    0.0100    0.0100    0.0100    0.0100
    0.0100    0.0100    0.0100    0.0100    0.0100    0.0100    0.0100    0.0100
    0.0100    0.0100    0.0100    0.0100    0.0100    0.0100    0.0100    0.0100
    0.0100    0.0100    0.0100    0.0100    0.0100    0.0100    0.0100    0.0100
    0.0100    0.0100    0.0100    0.0100    0.0100    0.0100    0.0100    0.0100
    0.0100    0.0100    0.0100    0.0100    0.0100    0.0100    0.0100    0.0100
    0.0100    0.0100    0.0100    0.0100    0.0100    0.0100    0.0100    0.0100
    0.0100    0.0100    0.0100    0.0100    0.0100    0.0100    0.0100    0.0100
    0.0100    0.0100    0.0100    0.0100    0.0100    0.0100    0.0100    0.0100
    0.0100    0.0100    0.0100    0.0100    0.0100    0.0100    0.0100    0.0100
    0.0100    0.0100    0.0100    0.0100    0.0100    0.0100    0.0100    0.0100
    0.0100    0.0100    0.0100    0.0100    0.0100    0.0100    0.0100    0.0100
    0.0100    0.0100    0.0100    0.0100    0.0100    0.0100    0.0100    0.0100
    0.0100    0.0100    0.0100    0.0100    0.0100    0.0100    0.0100    0.0100
    0.0100    0.0100    0.0100    0.0100    0.0100    0.0100    0.0100    0.0100
    0.0100    0.0100    0.0100    0.0100    0.0100    0.0100    0.0100    0.0100
    0.0100    0.0100    0.0100    0.0100    0.0100    0.0100    0.0100    0.0100
    0.0100    0.0100    0.0100    0.0100    0.0100    0.0100    0.0100    0.0100
    0.0100    0.0100    0.0100    0.0100    0.0100    0.0100    0.0100    0.0100
    0.0100    0.0100    0.0100    0.0100    0.0100    0.0100    0.0100    0.0100
    0.0100    0.0100    0.0100    0.0100    0.0100    0.0100    0.0100    0.0100
    0.0100    0.0100    0.0100    0.0100    0.0100    0.0100    0.0100    0.0100
    0.0100    0.0100    0.0100    0.0100    0.0100    0.0100    0.0100    0.0100
    0.0100    0.0100    0.0100    0.0100    0.0100    0.0100    0.0100    0.0100
    0.0100    0.0100    0.0100    0.0100    0.0100    0.0100    0.0100    0.0100
    0.0100    0.0100    0.0100    0.0100    0.0100    0.0100    0.0100    0.0100
    0.0100    0.0100    0.0100    0.0100    0.0100    0.0100    0.0100    0.0100
    0.0100    0.0100    0.0100    0.0100    0.0100    0.0100    0.0100    0.0100
    0.0100    0.0100    0.0100    0.0100    0.0100    0.0100    0.0100    0.0100
    0.0100    0.0100    0.0100    0.0100    0.0100    0.0100    0.0100    0.0100
    0.0100    0.0100    0.0100    0.0100    0.0100    0.0100    0.0100    0.0100
    0.0100    0.0100    0.0100    0.0100    0.0100    0.0100    0.0100    0.0100
    0.0100    0.0100    0.0100    0.0100    0.0100    0.0100    0.0100    0.0100
    0.0100    0.0100    0.0100    0.0100    0.0100    0.0100    0.0100    0.0100
    0.0100    0.0100    0.0100    0.0100    0.0100    0.0100    0.0100    0.0100
    0.0100    0.0100    0.0100    0.0100    0.0100    0.0100    0.0100    0.0100
    0.0100    0.0100    0.0100    0.0100    0.0100    0.0100    0.0100    0.0100
    0.0100    0.0100    0.0100    0.0100    0.0100    0.0100    0.0100    0.0100
    0.0100    0.0100    0.0100    0.0100    0.0100    0.0100    0.0100    0.0100
    0.0100    0.0100    0.0100    0.0100    0.0100    0.0100    0.0100    0.0100
    0.0100    0.0100    0.0100    0.0100    0.0100    0.0100    0.0100    0.0100
    0.0100    0.0100    0.0100    0.0100    0.0100    0.0100    0.0100    0.0100
    0.0100    0.0100    0.0100    0.0100    0.0100    0.0100    0.0100    0.0100
    0.0100    0.0100    0.0100    0.0100    0.0100    0.0100    0.0100    0.0100
    0.0100    0.0100    0.0100    0.0100    0.0100    0.0100    0.0100    0.0100
    0.0100    0.0100    0.0100    0.0100    0.0100    0.0100    0.0100    0.0100
    0.0100    0.0100    0.0100    0.0100    0.0100    0.0100    0.0100    0.0100
    0.0100    0.0100    0.0100    0.0100    0.0100    0.0100    0.0100    0.0100
    0.0100    0.0100    0.0100    0.0100    0.0100    0.0100    0.0100    0.0100
    0.0100    0.0100    0.0100    0.0100    0.0100    0.0100    0.0100    0.0100
    0.0100    0.0100    0.0100    0.0100    0.0100    0.0100    0.0100    0.0100
    0.0100    0.0100    0.0100    0.0100    0.0100    0.0100    0.0100    0.0100
    0.0100    0.0100    0.0100    0.0100    0.0100    0.0100    0.0100    0.0100
    0.0100    0.0100    0.0100    0.0100    0.0100    0.0100    0.0100    0.0100
    0.0100    0.0100    0.0100    0.0100    0.0100    0.0100    0.0100    0.0100
    0.0100    0.0100    0.0100    0.0100    0.0100    0.0100    0.0100    0.0100
    0.0100    0.0100    0.0100    0.0100    0.0100    0.0100    0.0100    0.0100
    0.0100    0.0100    0.0100    0.0100    0.0100    0.0100    0.0100    0.0100
    0.0100    0.0100    0.0100    0.0100    0.0100    0.0100    0.0100    0.0100
    0.0100    0.0100    0.0100    0.0100    0.0100    0.0100    0.0100    0.0100
    0.0100    0.0100    0.0100    0.0100    0.0100    0.0100    0.0100    0.0100
    0.0100    0.0100    0.0100    0.0100    0.0100    0.0100    0.0100    0.0100
    0.0100    0.0100    0.0100    0.0100    0.0100    0.0100    0.0100    0.0100
    0.0100    0.0100    0.0100    0.0100    0.0100    0.0100    0.0100    0.0100
    0.0100    0.0100    0.0100    0.0100    0.0100    0.0100    0.0100    0.0100
    0.0100    0.0100    0.0100    0.0100    0.0100    0.0100    0.0100    0.0100
    0.0100    0.0100    0.0100    0.0100    0.0100    0.0100    0.0100    0.0100
    0.0100    0.0100    0.0100    0.0100    0.0100    0.0100    0.0100    0.0100
    0.0100    0.0100    0.0100    0.0100    0.0100    0.0100    0.0100    0.0100
    0.0100    0.0100    0.0100    0.0100    0.0100    0.0100    0.0100    0.0100
    0.0100    0.0100    0.0100    0.0100    0.0100    0.0100    0.0100    0.0100
    0.0100    0.0100    0.0100    0.0100    0.0100    0.0100    0.0100    0.0100
    0.0100    0.0100    0.0100    0.0100    0.0100    0.0100    0.0100    0.0100
    0.0100    0.0100    0.0100    0.0100    0.0100    0.0100    0.0100    0.0100
    0.0100    0.0100
   </PP_RAB>
 </PP_MESH>
  <PP_LOCAL type="real"  size=" 602" columns="4">
   -2.2152737684E+01   -2.2181547408E+01   -2.2195911339E+01   -2.2239548931E+01
   -2.2356179637E+01   -2.2625574079E+01   -2.3122453698E+01   -2.3742607100E+01
   -2.4061525440E+01   -2.3729900723E+01   -2.3002613686E+01   -2.2374929655E+01
   -2.2034235505E+01   -2.1909291758E+01   -2.1888199486E+01   -2.1901330685E+01
   -2.1918196811E+01   -2.1928996584E+01   -2.1932323719E+01   -2.1929417958E+01
   -2.1921975453E+01   -2.1911480788E+01   -2.1899092246E+01   -2.1885690766E+01
   -2.1871955535E+01   -2.1858426266E+01   -2.1845545341E+01   -2.1833683300E+01
   -2.1823151751E+01   -2.1814207875E+01   -2.1807053375E+01   -2.1801829963E+01
   -2.1798612988E+01   -2.1797404590E+01   -2.1798126985E+01   -2.1800617752E+01
   -2.1804626830E+01   -2.1809817408E+01   -2.1815769407E+01   -2.1821988096E+01
   -2.1827916258E+01   -2.1832950431E+01   -2.1836460591E+01   -2.1837812447E+01
   -2.1836391233E+01   -2.1831625733E+01   -2.1823011151E+01   -2.1810129462E+01
   -2.1792665971E+01   -2.1770420648E+01   -2.1743315442E+01   -2.1711394577E+01
   -2.1674818157E+01   -2.1633853063E+01   -2.1588857520E+01   -2.1540261274E+01
   -2.1488547116E+01   -2.1434227303E+01   -2.1377823935E+01   -2.1319849961E+01
   -2.1260791863E+01   -2.1201098506E+01   -2.1141171047E+01   -2.1081357285E+01
   -2.1021951619E+01   -2.0963193513E+01   -2.0905271726E+01   -2.0848329439E+01
   -2.0792469289E+01   -2.0737758233E+01   -2.0684234764E+01   -2.0631913741E+01
   -2.0580791263E+01   -2.0530848541E+01   -2.0482055475E+01   -2.0434373542E+01
   -2.0387757809E+01   -2.0342158518E+01   -2.0297522206E+01   -2.0253792454E+01
   -2.0210910340E+01   -2.0168814660E+01   -2.0127441999E+01   -2.0086726689E+01
   -2.0046600710E+01   -2.0006993580E+01   -1.9967832286E+01   -1.9929041225E+01
   -1.9890542262E+01   -1.9852254866E+01   -1.9814096370E+01   -1.9775982347E+01
   -1.9737827116E+01   -1.9699544364E+01   -1.9661047889E+01   -1.9622252434E+01
   -1.9583074596E+01   -1.9543433781E+01   -1.9503253057E+01   -1.9462460245E+01
   -1.9420989059E+01   -1.9378779619E+01   -1.9335779272E+01   -1.9291943152E+01
   -1.9247234305E+01   -1.9201624460E+01   -1.9155094490E+01   -1.9107633393E+01
   -1.9059238344E+01   -1.9009913826E+01   -1.8959672471E+01   -1.8908533567E+01
   -1.8856521956E+01   -1.8803667310E+01   -1.8750004105E+01   -1.8695570454E+01
   -1.8640406781E+01   -1.8584555392E+01   -1.8528060198E+01   -1.8470965402E+01
   -1.8413315224E+01   -1.8355153611E+01   -1.8296523225E+01   -1.8237465589E+01
   -1.8178021201E+01   -1.8118227926E+01   -1.8058122133E+01   -1.7997738927E+01
   -1.7937110126E+01   -1.7876266198E+01   -1.7815236202E+01   -1.7754045999E+01
   -1.7692720478E+01   -1.7631282866E+01   -1.7569753893E+01   -1.7508153671E+01
   -1.7446500320E+01   -1.7384810483E+01   -1.7323100387E+01   -1.7261383994E+01
   -1.7199675004E+01   -1.7137985981E+01   -1.7076328254E+01   -1.7014713081E+01
   -1.6953150094E+01   -1.6891648898E+01   -1.6830218179E+01   -1.6768865970E+01
   -1.6707600117E+01   -1.6646427357E+01   -1.6585354612E+01   -1.6524387693E+01
   -1.6463532449E+01   -1.6402794013E+01   -1.6342177185E+01   -1.6281686447E+01
   -1.6221325620E+01   -1.6161098545E+01   -1.6101008117E+01   -1.6041057537E+01
   -1.5981248850E+01   -1.5921584540E+01   -1.5862065933E+01   -1.5802694741E+01
   -1.5743471650E+01   -1.5684397627E+01   -1.5625472740E+01   -1.5566697277E+01
   -1.5508070723E+01   -1.5449592762E+01   -1.5391262355E+01   -1.5333078665E+01
   -1.5275040211E+01   -1.5217145728E+01   -1.5159393402E+01   -1.5101781633E+01
   -1.5044308411E+01   -1.4986971887E+01   -1.4929770024E+01   -1.4872700808E+01
   -1.4815762328E+01   -1.4758952550E+01   -1.4702269773E+01   -1.4645712143E+01
   -1.4589278199E+01   -1.4532966487E+01   -1.4476775781E+01   -1.4420705247E+01
   -1.4364753870E+01   -1.4308921605E+01   -1.4253207664E+01   -1.4197612716E+01
   -1.4142136672E+01   -1.4086780471E+01   -1.4031544965E+01   -1.3976431263E+01
   -1.3921441181E+01   -1.3866575980E+01   -1.3811838202E+01   -1.3757229681E+01
   -1.3702753102E+01   -1.3648411073E+01   -1.3594206264E+01   -1.3540141843E+01
   -1.3486220619E+01   -1.3432445918E+01   -1.3378820900E+01   -1.3325348779E+01
   -1.3272032830E+01   -1.3218876348E+01   -1.3165882441E+01   -1.3113054378E+01
   -1.3060395206E+01   -1.3007907837E+01   -1.2955595463E+01   -1.2903460592E+01
   -1.2851506098E+01   -1.2799734590E+01   -1.2748148371E+01   -1.2696750124E+01
   -1.2645541879E+01   -1.2594525869E+01   -1.2543704329E+01   -1.2493079126E+01
   -1.2442652339E+01   -1.2392425898E+01   -1.2342401682E+01   -1.2292581598E+01
   -1.2242967592E+01   -1.2193561567E+01   -1.2144365416E+01   -1.2095381284E+01
   -1.2046611108E+01   -1.1998057018E+01   -1.1949721360E+01   -1.1901606179E+01
   -1.1853713963E+01   -1.1806047235E+01   -1.1758608227E+01   -1.1711399744E+01
   -1.1664424439E+01   -1.1617684820E+01   -1.1571183804E+01   -1.1524924152E+01
   -1.1478908616E+01   -1.1433140022E+01   -1.1387621204E+01   -1.1342354992E+01
   -1.1297343994E+01   -1.1252591016E+01   -1.1208098801E+01   -1.1163869615E+01
   -1.1119906105E+01   -1.1076210798E+01   -1.1032785505E+01   -1.0989632569E+01
   -1.0946754229E+01   -1.0904151742E+01   -1.0861827006E+01   -1.0819781956E+01
   -1.0778017219E+01   -1.0736534127E+01   -1.0695334331E+01   -1.0654417787E+01
   -1.0613785166E+01   -1.0573437879E+01   -1.0533375199E+01   -1.0493597209E+01
   -1.0454104736E+01   -1.0414896778E+01   -1.0375972742E+01   -1.0337332730E+01
   -1.0298975677E+01   -1.0260900294E+01   -1.0223105941E+01   -1.0185591577E+01
   -1.0148355258E+01   -1.0111395623E+01   -1.0074711686E+01   -1.0038300927E+01
   -1.0002161456E+01   -9.9662919139E+00   -9.9306897131E+00   -9.8953524528E+00
   -9.8602781356E+00   -9.8254644176E+00   -9.7909083798E+00   -9.7566074554E+00
   -9.7225594724E+00   -9.6887611376E+00   -9.6552096033E+00   -9.6219021292E+00
   -9.5888357790E+00   -9.5560075394E+00   -9.5234144545E+00   -9.4910534918E+00
   -9.4589218940E+00   -9.4270167887E+00   -9.3953351652E+00   -9.3638742576E+00
   -9.3326314070E+00   -9.3016038505E+00   -9.2707885555E+00   -9.2401831921E+00
   -9.2097851482E+00   -9.1795916638E+00   -9.1496001285E+00   -9.1198083099E+00
   -9.0902137634E+00   -9.0608137483E+00   -9.0316061490E+00   -9.0025888038E+00
   -8.9737594269E+00   -8.9451154014E+00   -8.9166550376E+00   -8.8883762612E+00
   -8.8602768615E+00   -8.8323546605E+00   -8.8046080679E+00   -8.7770351976E+00
   -8.7496339397E+00   -8.7224025176E+00   -8.6953394311E+00   -8.6684429746E+00
   -8.6417111662E+00   -8.6151425603E+00   -8.5887357467E+00   -8.5624891868E+00
   -8.5364010522E+00   -8.5104701392E+00   -8.4846951280E+00   -8.4590746273E+00
   -8.4336069992E+00   -8.4082911619E+00   -8.3831258719E+00   -8.3581098506E+00
   -8.3332416654E+00   -8.3085202356E+00   -8.2839443662E+00   -8.2595128457E+00
   -8.2352243657E+00   -8.2110778356E+00   -8.1870720990E+00   -8.1632059866E+00
   -8.1394782457E+00   -8.1158878013E+00   -8.0924335415E+00   -8.0691143348E+00
   -8.0459289937E+00   -8.0228764380E+00   -7.9999555897E+00   -7.9771653462E+00
   -7.9545045623E+00   -7.9319721548E+00   -7.9095670864E+00   -7.8872882823E+00
   -7.8651346296E+00   -7.8431050224E+00   -7.8211985079E+00   -7.7994140520E+00
   -7.7777506129E+00   -7.7562070125E+00   -7.7347824252E+00   -7.7134758720E+00
   -7.6922863739E+00   -7.6712128385E+00   -7.6502543928E+00   -7.6294101523E+00
   -7.6086791890E+00   -7.5880605284E+00   -7.5675532199E+00   -7.5471564590E+00
   -7.5268693585E+00   -7.5066910312E+00   -7.4866204660E+00   -7.4666569284E+00
   -7.4467995826E+00   -7.4270475833E+00   -7.4074000257E+00   -7.3878560703E+00
   -7.3684149818E+00   -7.3490759541E+00   -7.3298381810E+00   -7.3107007411E+00
   -7.2916629676E+00   -7.2727241017E+00   -7.2538833747E+00   -7.2351399751E+00
   -7.2164931067E+00   -7.1979421183E+00   -7.1794862769E+00   -7.1611248495E+00
   -7.1428570184E+00   -7.1246821216E+00   -7.1065994970E+00   -7.0886084457E+00
   -7.0707082684E+00   -7.0528981514E+00   -7.0351775429E+00   -7.0175457765E+00
   -7.0000021857E+00   -6.9825460744E+00   -6.9651767271E+00   -6.9478935941E+00
   -6.9306960402E+00   -6.9135834296E+00   -6.8965550765E+00   -6.8796103450E+00
   -6.8627486926E+00   -6.8459695134E+00   -6.8292722013E+00   -6.8126560865E+00
   -6.7961205954E+00   -6.7796651976E+00   -6.7632893152E+00   -6.7469923705E+00
   -6.7307737153E+00   -6.7146328210E+00   -6.6985691750E+00   -6.6825822263E+00
   -6.6666714241E+00   -6.6508361470E+00   -6.6350758957E+00   -6.6193901803E+00
   -6.6037784756E+00   -6.5882402564E+00   -6.5727749330E+00   -6.5573820199E+00
   -6.5420610556E+00   -6.5268115393E+00   -6.5116329701E+00   -6.4965247947E+00
   -6.4814865276E+00   -6.4665177400E+00   -6.4516179545E+00   -6.4367866935E+00
   -6.4220234444E+00   -6.4073277086E+00   -6.3926990942E+00   -6.3781371462E+00
   -6.3636414091E+00   -6.3492114155E+00   -6.3348466416E+00   -6.3205467361E+00
   -6.3063112649E+00   -6.2921397941E+00   -6.2780318893E+00   -6.2639870389E+00
   -6.2500048870E+00   -6.2360850357E+00   -6.2222270709E+00   -6.2084305788E+00
   -6.1946951011E+00   -6.1810202292E+00   -6.1674056165E+00   -6.1538508682E+00
   -6.1403555898E+00   -6.1269193811E+00   -6.1135417710E+00   -6.1002224661E+00
   -6.0869610901E+00   -6.0737572667E+00   -6.0606106197E+00   -6.0475207219E+00
   -6.0344872206E+00   -6.0215097942E+00   -6.0085880839E+00   -5.9957217312E+00
   -5.9829103746E+00   -5.9701535767E+00   -5.9574510770E+00   -5.9448025333E+00
   -5.9322076037E+00   -5.9196659462E+00   -5.9071771839E+00   -5.8947409668E+00
   -5.8823570178E+00   -5.8700250110E+00   -5.8577446201E+00   -5.8455155193E+00
   -5.8333373226E+00   -5.8212097523E+00   -5.8091325196E+00   -5.7971053136E+00
   -5.7851278235E+00   -5.7731997382E+00   -5.7613206700E+00   -5.7494903971E+00
   -5.7377086247E+00   -5.7259750565E+00   -5.7142893961E+00   -5.7026513344E+00
   -5.6910605247E+00   -5.6795167492E+00   -5.6680197252E+00   -5.6565691703E+00
   -5.6451648017E+00   -5.6338063161E+00   -5.6224933996E+00   -5.6112258381E+00
   -5.6000033621E+00   -5.5888257021E+00   -5.5776925888E+00   -5.5666037296E+00
   -5.5555588304E+00   -5.5445576856E+00   -5.5336000385E+00   -5.5226856320E+00
   -5.5118142093E+00   -5.5009854932E+00   -5.4901991978E+00   -5.4794551306E+00
   -5.4687530465E+00   -5.4580927008E+00   -5.4474738484E+00   -5.4368962321E+00
   -5.4263595628E+00   -5.4158636652E+00   -5.4054083058E+00   -5.3949932511E+00
   -5.3846182676E+00   -5.3742831217E+00   -5.3639875120E+00   -5.3537312832E+00
   -5.3435142128E+00   -5.3333360785E+00   -5.3231966574E+00   -5.3130957270E+00
   -5.3030330147E+00   -5.2930083375E+00   -5.2830215010E+00   -5.2730722928E+00
   -5.2631605008E+00   -5.2532859125E+00   -5.2434482883E+00   -5.2336474086E+00
   -5.2238831097E+00   -5.2141551893E+00   -5.2044634450E+00   -5.1948076743E+00
   -5.1851876744E+00   -5.1756031804E+00   -5.1660540624E+00   -5.1565401274E+00
   -5.1470611825E+00   -5.1376170347E+00   -5.1282074911E+00   -5.1188323250E+00
   -5.1094913522E+00   -5.1001844184E+00   -5.0909113395E+00   -5.0816719316E+00
   -5.0724660108E+00   -5.0632933931E+00   -5.0541538353E+00   -5.0450472192E+00
   -5.0359733711E+00   -5.0269321156E+00   -5.0179232774E+00   -5.0089466810E+00
   -5.0000021307E+00   -4.9910894342E+00   -4.9822084642E+00   -4.9733590535E+00
   -4.9645410348E+00   -4.9557542409E+00   -4.9469985046E+00   -4.9382736222E+00
   -4.9295794453E+00   -4.9209158369E+00   -4.9122826375E+00   -4.9036796877E+00
   -4.8951068281E+00   -4.8865638993E+00   -4.8780506947E+00   -4.8695670979E+00
   -4.8611129671E+00   -4.8526881501E+00   -4.8442924951E+00   -4.8359258500E+00
   -4.8275880629E+00   -4.8192789292E+00   -4.8109983530E+00   -4.8027461923E+00
   -4.7945223024E+00   -4.7863265383E+00   -4.7781587550E+00   -4.7700188077E+00
   -4.7619064981E+00   -4.7538217403E+00   -4.7457643971E+00   -4.7377343301E+00
   -4.7297314014E+00   -4.7217554727E+00   -4.7138064059E+00   -4.7058840128E+00
   -4.6979882081E+00   -4.6901188632E+00   -4.6822758463E+00   -4.6744590257E+00
   -4.6666682696E+00   -4.6589034465E+00
  </PP_LOCAL>
 <PP_NONLOCAL>
   <PP_BETA.1
       type="real"
       size=" 602"
       columns="4"
       index="1"
       angular_momentum="0"
       cutoff_radius_index=" 364"
       cutoff_radius="    3.6300000000E+00" >
    0.0000000000E+00    1.4915188014E-02    2.9833300943E-02    4.4757245730E-02
    5.9689893417E-02    7.4634061293E-02    8.9592495170E-02    1.0456785182E-01
    1.1956268159E-01    1.3457941133E-01    1.4962032751E-01    1.6468755969E-01
    1.7978306440E-01    1.9490860933E-01    2.1006575804E-01    2.2525585502E-01
    2.4048001135E-01    2.5573909090E-01    2.7103369699E-01    2.8636415976E-01
    3.0173052411E-01    3.1713253832E-01    3.3256964335E-01    3.4804096283E-01
    3.6354529382E-01    3.7908109831E-01    3.9464649550E-01    4.1023925487E-01
    4.2585679013E-01    4.4149615390E-01    4.5715403337E-01    4.7282674668E-01
    4.8851024029E-01    5.0420008728E-01    5.1989148631E-01    5.3557926176E-01
    5.5125786460E-01    5.6692137428E-01    5.8256350137E-01    5.9817759130E-01
    6.1375662890E-01    6.2929324384E-01    6.4477971695E-01    6.6020798752E-01
    6.7556966137E-01    6.9085601983E-01    7.0605802960E-01    7.2116635336E-01
    7.3617136129E-01    7.5106314307E-01    7.6583152137E-01    7.8046606569E-01
    7.9495610601E-01    8.0929074891E-01    8.2345889394E-01    8.3744924737E-01
    8.5125034462E-01    8.6485056080E-01    8.7823813767E-01    8.9140119270E-01
    9.0432774858E-01    9.1700574415E-01    9.2942305947E-01    9.4156753732E-01
    9.5342699732E-01    9.6498926567E-01    9.7624219291E-01    9.8717367282E-01
    9.9777166499E-01    1.0080242245E+00    1.0179195146E+00    1.0274458319E+00
    1.0365916261E+00    1.0453455269E+00    1.0536963656E+00    1.0616331927E+00
    1.0691453013E+00    1.0762222490E+00    1.0828538785E+00    1.0890303387E+00
    1.0947421052E+00    1.0999800004E+00    1.1047352130E+00    1.1089993172E+00