                                                                                     
                             WELCOME TO ABACUS                                       
                                                                                     
               'Atomic-orbital Based Ab-initio Computation at UStc'                  
                                                                                     
                     Website: http://abacus.ustc.edu.cn/                             
                                                                                     
    Version: Parallel, v2.0.0
    Processor Number is 8
    Start Time is Wed Oct  9 18:59:15 2019
                                                                                     
 ------------------------------------------------------------------------------------

 READING GENERAL INFORMATION
                           global_out_dir = OUT.Si-6-3.8/
                           global_in_card = INPUT
                               pseudo_dir = ./
                              pseudo_type = auto
                                    DRANK = 1
                                    DSIZE = 8
                                   DCOLOR = 1
                                    GRANK = 1
                                    GSIZE = 1
Open file : INPUTw




 >>>>>>>>>>>>>>>>>>>>>>>>>>>>>>>>>>>>>>>>>>>>>>>>>>>>>>>>>>>>>>>>>>>>>>
 |                                                                    |
 | Reading atom information in unitcell:                              |
 | From the input file and the structure file we know the number of   |
 | different elments in this unitcell, then we list the detail        |
 | information for each element, especially the zeta and polar atomic |
 | orbital number for each element. The total atom number is counted. |
 | We calculate the nearest atom distance for each atom and show the  |
 | Cartesian and Direct coordinates for each atom. We list the file   |
 | address for atomic orbitals and nonlocal projectors. The volume    |
 | and the lattice vectors in real and reciprocal space is also shown.|
 |                                                                    |
 <<<<<<<<<<<<<<<<<<<<<<<<<<<<<<<<<<<<<<<<<<<<<<<<<<<<<<<<<<<<<<<<<<<<<<




 READING UNITCELL INFORMATION
                                    ntype = 1
                 atom label for species 1 = Si
                  lattice constant (Bohr) = 20
              lattice constant (Angstrom) = 10.5835

 READING ATOM TYPE 1
                               atom label = Si
                      start magnetization = FALSE
                      L=0, number of zeta = 1
                      L=1, number of zeta = 1
                      L=2, number of zeta = 1
             number of atom for this type = 2

                        TOTAL ATOM NUMBER = 2

 Output nearest atom not considering periodic boundary condition
  TYPE INDEX       NEAREST(Bohr)   NEAREST(Angstrom)
    Si     1                   0                   0
    Si     2                   0                   0

 CARTESIAN COORDINATES ( UNIT = 20 Bohr ).
         atom                   x                   y                   z                 mag
     tauc_Si1                   0                   0                   0                   0
     tauc_Si2                   0                   0      0.359048106777                   0


                          Volume (Bohr^3) = 8000
                             Volume (A^3) = 1185.47627437

 Lattice vectors: (Cartesian coordinate: in unit of a_0)
                   +1                  +0                  +0
                   +0                  +1                  +0
                   +0                  +0                  +1
 Reciprocal vectors: (Cartesian coordinate: in unit of 2 pi/a_0)
                   +1                  +0                  +0
                   +0                  +1                  +0
                   +0                  -0                  +1




 >>>>>>>>>>>>>>>>>>>>>>>>>>>>>>>>>>>>>>>>>>>>>>>>>>>>>>>>>>>>>>>>>>>>>>
 |                                                                    |
 | Reading pseudopotentials files:                                    |
 | The pseudopotential file is in UPF format. The 'NC' indicates that |
 | the type of pseudopotential is 'norm conserving'. Functional of    |
 | exchange and correlation is decided by 4 given parameters in UPF   |
 | file.  We also read in the 'core correction' if there exists.      |
 | Also we can read the valence electrons number and the maximal      |
 | angular momentum used in this pseudopotential. We also read in the |
 | trail wave function, trail atomic density and local-pseudopotential|
 | on logrithmic grid. The non-local pseudopotential projector is also|
 | read in if there is any.                                           |
 |                                                                    |
 <<<<<<<<<<<<<<<<<<<<<<<<<<<<<<<<<<<<<<<<<<<<<<<<<<<<<<<<<<<<<<<<<<<<<<




                PAO radial cut off (Bohr) = 14

 Read in pseudopotential file is Si_ONCV_PBE-1.0.upf
                     pseudopotential type = NC
                            functional Ex = PBE
                            functional Ec = 
                          functional GCEx = 
                          functional GCEc = 
                 nonlocal core correction = 0
                        valence electrons = 4
                                     lmax = 1
                           number of zeta = 0
                     number of projectors = 4
                           L of projector = 0
                           L of projector = 0
                           L of projector = 1
                           L of projector = 1

 SETUP THE ELECTRONS NUMBER
            electron number of element Si = 4
      total electron number of element Si = 8
                           occupied bands = 4
                                   NBANDS = 8
     initial pseudo atomic orbital number = 0
                                   NLOCAL = 18
 DONE : SETUP UNITCELL Time : 0.0401699542999 (SEC)





 >>>>>>>>>>>>>>>>>>>>>>>>>>>>>>>>>>>>>>>>>>>>>>>>>>>>>>>>>>>>>>>>>>>>>>
 |                                                                    |
 | Setup K-points                                                     |
 | We setup the k-points according to input parameters.               |
 | The reduced k-points are set according to symmetry operations.     |
 | We treat the spin as another set of k-points.                      |
 |                                                                    |
 <<<<<<<<<<<<<<<<<<<<<<<<<<<<<<<<<<<<<<<<<<<<<<<<<<<<<<<<<<<<<<<<<<<<<<





 SETUP K-POINTS
                                    nspin = 1
                   Input type of k points = Monkhorst-Pack(Gamma)
                                   nkstot = 1

  KPOINTS            DIRECT_X            DIRECT_Y            DIRECT_Z              WEIGHT
        1                   0                   0                   0                   1

           k-point number in this process = 1
       minimum distributed K point number = 1

  KPOINTS         CARTESIAN_X         CARTESIAN_Y         CARTESIAN_Z              WEIGHT
        1                   0                   0                   0                   2

  KPOINTS            DIRECT_X            DIRECT_Y            DIRECT_Z              WEIGHT
        1                   0                   0                   0                   2
 DONE : INIT K-POINTS Time : 0.0409491062164 (SEC)





 >>>>>>>>>>>>>>>>>>>>>>>>>>>>>>>>>>>>>>>>>>>>>>>>>>>>>>>>>>>>>>>>>>>>>>
 |                                                                    |
 | Setup plane waves:                                                 |
 | Use the energy cutoff and the lattice vectors to generate the      |
 | dimensions of FFT grid. The number of FFT grid on each processor   |
 | is 'nrxx'. The number of plane wave basis in reciprocal space is   |
 | different for charege/potential and wave functions. We also set    |
 | the 'sticks' for the parallel of FFT.                              |
 |                                                                    |
 <<<<<<<<<<<<<<<<<<<<<<<<<<<<<<<<<<<<<<<<<<<<<<<<<<<<<<<<<<<<<<<<<<<<<<





 SETUP THE PLANE WAVE BASIS
     energy cutoff for wavefunc (unit:Ry) = 100
            [fft grid for wave functions] = 128, 128, 128
          [fft grid for charge/potential] = 128, 128, 128
                      [fft grid division] = 1, 1, 1
      [big fft grid for charge/potential] = 128, 128, 128
                                     nbxx = 262144
                                     nrxx = 262144

 SETUP PLANE WAVES FOR CHARGE/POTENTIAL
                    number of plane waves = 1080751
                         number of sticks = 12745

 SETUP PLANE WAVES FOR WAVE FUNCTIONS
                    number of plane waves = 135043
                         number of sticks = 3181

 PARALLEL PW FOR CHARGE/POTENTIAL
     PROC   COLUMNS(POT)             PW
        1           1592         135094
        2           1592         135094
        3           1593         135095
        4           1594         135094
        5           1594         135094
        6           1594         135094
        7           1593         135093
        8           1593         135093
 --------------- sum -------------------
        8          12745        1080751

 PARALLEL PW FOR WAVE FUNCTIONS
     PROC     COLUMNS(W)             PW
        1            399          16877
        2            404          16880
        3            397          16877
        4            399          16887
        5            396          16882
        6            396          16886
        7            394          16878
        8            396          16876
 --------------- sum -------------------
        8           3181         135043

 SETUP COORDINATES OF PLANE WAVES
              number of total plane waves = 1080751

 SETUP COORDINATES OF PLANE WAVES
                            number of |g| = 3355
                                  max |g| = 4052
                                  min |g| = 0
 DONE : INIT PLANEWAVE Time : 0.609477043152 (SEC)

                                     npwx = 16877

 SETUP NONLOCAL PSEUDOPOTENTIALS IN PLANE WAVE BASIS
 Si non-local projectors:
 projector 1 L=0
 projector 2 L=0
 projector 3 L=1
 projector 4 L=1
      TOTAL NUMBER OF NONLOCAL PROJECTORS = 16
 DONE : LOCAL POTENTIAL Time : 0.697423219681 (SEC)


 Init Non-Local PseudoPotential table : 
 Init Non-Local-Pseudopotential done.
 DONE : NON-LOCAL POTENTIAL Time : 0.731139183044 (SEC)

                                start_pot = atomic
 DONE : INIT POTENTIAL Time : 0.988737 (SEC)


 Make real space PAO into reciprocal space.
       max mesh points in Pseudopotential = 601
     dq(describe PAO in reciprocal space) = 0.01
                                    max q = 1206

 number of pseudo atomic orbitals for Si is 0
 DONE : INIT BASIS Time : 1.17509 (SEC)

 -------------------------------------------
 -------------------------------------------

 PW ALGORITHM --------------- ION=   1  ELEC=   1--------------------------------
  K-point    CG iter num      Time(Sec)
 Energy (eV) & Occupations  for spin=1 K-point=1
      1     -10.279008       1.000000
      2     -10.028339       1.000000
      3      -3.833300       1.000000
      4      -3.533323       1.000000
      5      -3.278500       1.000000
      6      -3.494315       1.000000
      7      -3.387271       1.000000
      8      -2.829905       1.000000
        1       8.250000       1.240000

 Density error is 0.121438911469
                          Error Threshold = 0.010000000000

       Energy                       Rydberg                            eV
   E_KohnSham              -14.984933104212             -203.880474366108
     E_Harris              -15.043537422729             -204.677827025344
       E_band               -4.063927168131              -55.292565743592
   E_one_elec              -14.872054355755             -202.344680203990
    E_Hartree               +7.993965600130             +108.763481777755
         E_xc               -3.988922244409              -54.272071402909
      E_Ewald               -4.104988486688              -55.851233643357
      E_demet               -0.013300932616               -0.180968472287
      E_descf               +0.000367315126               +0.004997578681
     E_efield               +0.000000000000               +0.000000000000
      E_Fermi               -0.259007354771               -3.523975848796

 PW ALGORITHM --------------- ION=   1  ELEC=   2--------------------------------
  K-point    CG iter num      Time(Sec)
 Energy (eV) & Occupations  for spin=1 K-point=1
      1     -11.367150       2.000000
      2      -9.143525       2.000000
      3      -4.603593       1.998696
      4      -4.498372       1.077396
      5      -4.464632       0.010725
      6      -2.648073       0.757849
      7      -2.593511       0.155333
      8      -2.218455       0.000000
        1       2.750000       0.510000

 Density error is 1.421617243519
                          Error Threshold = 0.001517986393

       Energy                       Rydberg                            eV
   E_KohnSham              -15.066374160691             -204.988536785363
     E_Harris              -15.298702978504             -208.149532517232
       E_band               -4.349326291114              -59.175620020358
   E_one_elec              -14.979233831492             -203.802931782660
    E_Hartree               +7.984946969540             +108.640777013581
         E_xc               -3.988124432913              -54.261216620642
      E_Ewald               -4.104988486688              -55.851233643357
      E_demet               -0.013237040041               -0.180099169214
      E_descf               +0.034262660904               +0.466167416930
     E_efield               +0.000000000000               +0.000000000000
      E_Fermi               -0.328623920814               -4.471157822177

 PW ALGORITHM --------------- ION=   1  ELEC=   3--------------------------------
  K-point    CG iter num      Time(Sec)
 Energy (eV) & Occupations  for spin=1 K-point=1
      1     -10.451117       2.000000
      2     -10.019120       2.000000
      3      -4.208563       1.831355
      4      -3.756956       1.222723
      5      -3.742111       0.945922
      6      -3.320384       0.000000
      7      -3.290367       0.000000
      8      -2.545401       0.000000
        1       2.125000       0.410000

 Density error is 0.111341963454
                          Error Threshold = 0.001517986393

       Energy                       Rydberg                            eV
   E_KohnSham              -15.111668202370             -205.604793837649
     E_Harris              -15.117562917559             -205.684995552311
       E_band               -4.178953229768              -56.857575600352
   E_one_elec              -14.946570160921             -203.358519745301
    E_Hartree               +7.966011295851             +108.383143955937
         E_xc               -3.977547207093              -54.117306080448
      E_Ewald               -4.104988486688              -55.851233643357
      E_demet               -0.011250657202               -0.153073044190
      E_descf               -0.037322986317               -0.507805280291
     E_efield               +0.000000000000               +0.000000000000
      E_Fermi               -0.275585553502               -3.749533814115

 PW ALGORITHM --------------- ION=   1  ELEC=   4--------------------------------
  K-point    CG iter num      Time(Sec)
 Energy (eV) & Occupations  for spin=1 K-point=1
      1     -10.459258       2.000000
      2     -10.076573       2.000000
      3      -4.211122       1.999998
      4      -3.771626       1.061492
      5      -3.759196       0.938499
      6      -3.362596       0.000008
      7      -3.346101       0.000002
      8      -2.560468       0.000000
        1       2.000000       0.400000

 Density error is 0.022097401106
                          Error Threshold = 0.001391774543

       Energy                       Rydberg                            eV
   E_KohnSham              -15.117957647975             -205.690366135133
     E_Harris              -15.113847948297             -205.634450802450
       E_band               -4.191284310198              -57.025348556691
   E_one_elec              -14.942358047888             -203.301211007437
    E_Hartree               +7.953932055695             +108.218797462299
         E_xc               -3.969560717268              -54.008644311813
      E_Ewald               -4.104988486688              -55.851233643357
      E_demet               -0.011261697670               -0.153223257464
      E_descf               -0.043720754155               -0.594851377361
     E_efield               +0.000000000000               +0.000000000000
      E_Fermi               -0.276752641249               -3.765412857538

 PW ALGORITHM --------------- ION=   1  ELEC=   5--------------------------------
  K-point    CG iter num      Time(Sec)
 Energy (eV) & Occupations  for spin=1 K-point=1
      1     -10.649627       2.000000
      2      -9.934738       2.000000
      3      -4.241464       1.999996
      4      -3.921381       1.051489
      5      -3.908703       0.948473
      6      -3.271498       0.000028
      7      -3.251337       0.000013
      8      -2.531108       0.000000
        1       2.000000       0.400000

 Density error is 0.466308679382
                          Error Threshold = 0.000276217514

       Energy                       Rydberg                            eV
   E_KohnSham              -15.084033261671             -205.228801180249
     E_Harris              -15.137542916459             -205.956837383385
       E_band               -4.224860984547              -57.482182647726
   E_one_elec              -14.953780081396             -203.456615745896
    E_Hartree               +7.875539811364             +107.152216260396
         E_xc               -3.928850809640              -53.454757603022
      E_Ewald               -4.104988486688              -55.851233643357
      E_demet               -0.011277146553               -0.153433450297
      E_descf               +0.039323451243               +0.535023001927
     E_efield               +0.000000000000               +0.000000000000
      E_Fermi               -0.287747130399               -3.915000556582

 PW ALGORITHM --------------- ION=   1  ELEC=   6--------------------------------
  K-point    CG iter num      Time(Sec)
 Energy (eV) & Occupations  for spin=1 K-point=1
      1     -10.631701       2.000000
      2     -10.254148       2.000000
      3      -4.204179       1.999310
      4      -3.944893       1.052881
      5      -3.927429       0.947810
      6      -3.538777       0.000000
      7      -3.527771       0.000000
      8      -2.594868       0.000000
        1       2.125000       0.410000

 Density error is 0.054878062155
                          Error Threshold = 0.000276217514

       Energy                       Rydberg                            eV
   E_KohnSham              -15.111576648254             -205.603548179991
     E_Harris              -15.112419125074             -205.615010665188
       E_band               -4.266756459931              -58.052199833372
   E_one_elec              -14.955043774089             -203.473809167037
    E_Hartree               +7.880426494069             +107.218702989508
         E_xc               -3.930623953994              -53.478882469603
      E_Ewald               -4.104988486688              -55.851233643357
      E_demet               -0.011354567339               -0.154486814136
      E_descf               +0.010007639787               +0.136160924634
     E_efield               +0.000000000000               +0.000000000000
      E_Fermi               -0.289279119889               -3.935844342913

 PW ALGORITHM --------------- ION=   1  ELEC=   7--------------------------------
  K-point    CG iter num      Time(Sec)
 Energy (eV) & Occupations  for spin=1 K-point=1
      1     -10.617757       2.000000
      2     -10.250420       2.000000
      3      -4.196820       1.994715
      4      -3.931689       1.074931
      5      -3.922360       0.930294
      6      -3.533223       0.000037
      7      -3.527230       0.000022
      8      -2.587320       0.000000
        1       2.000000       0.390000

 Density error is 0.038939893110
                          Error Threshold = 0.000276217514

       Energy                       Rydberg                            eV
   E_KohnSham              -15.107915091599             -205.553730145934
     E_Harris              -15.111741675686             -205.605793493391
       E_band               -4.261672269946              -57.983025879862
   E_one_elec              -14.954183498988             -203.462104523813
    E_Hartree               +7.901312127030             +107.502866604110
         E_xc               -3.940550965347              -53.613946388124
      E_Ewald               -4.104988486688              -55.851233643357
      E_demet               -0.011382455069               -0.154866246169
      E_descf               +0.001878187464               +0.025554051420
     E_efield               +0.000000000000               +0.000000000000
      E_Fermi               -0.288609049773               -3.926727571272

 PW ALGORITHM --------------- ION=   1  ELEC=   8--------------------------------
  K-point    CG iter num      Time(Sec)
 Energy (eV) & Occupations  for spin=1 K-point=1
      1     -10.572497       2.000000
      2     -10.212785       2.000000
      3      -4.186734       1.995006
      4      -3.890778       1.041127
      5      -3.888496       0.963791
      6      -3.495620       0.000043
      7      -3.493309       0.000033
      8      -2.567870       0.000000
        1       2.000000       0.410000

 Density error is 0.010526285039
                          Error Threshold = 0.000276217514

       Energy                       Rydberg                            eV
   E_KohnSham              -15.110709013773             -205.591743407275
     E_Harris              -15.110676451382             -205.591300373220
       E_band               -4.242538634371              -57.722699412581
   E_one_elec              -14.953639116299             -203.454697817348
    E_Hartree               +7.901074356797             +107.499631574119
         E_xc               -3.940425512215              -53.612239510692
      E_Ewald               -4.104988486688              -55.851233643357
      E_demet               -0.011333206190               -0.154196180799
      E_descf               -0.001397049177               -0.019007829197
     E_efield               +0.000000000000               +0.000000000000
      E_Fermi               -0.285874395216               -3.889520687248

 PW ALGORITHM --------------- ION=   1  ELEC=   9--------------------------------
  K-point    CG iter num      Time(Sec)
 Energy (eV) & Occupations  for spin=1 K-point=1
      1     -10.572816       2.000000
      2     -10.212318       2.000000
      3      -4.188957       1.997994
      4      -3.889947       1.010425
      5      -3.888557       0.991501
      6      -3.494457       0.000042
      7      -3.492865       0.000038
      8      -2.569578       0.000000
        1       2.000000       0.390000

 Density error is 0.011712712878
                          Error Threshold = 0.000131578563

       Energy                       Rydberg                            eV
   E_KohnSham              -15.109915384943             -205.580945533081
     E_Harris              -15.110719916572             -205.591891747461
       E_band               -4.242789506976              -57.726112709482
   E_one_elec              -14.952759250235             -203.442726625399
    E_Hartree               +7.893626803346             +107.398302411025
         E_xc               -3.936980935329              -53.565373637842
      E_Ewald               -4.104988486688              -55.851233643357
      E_demet               -0.011329822795               -0.154150147342
      E_descf               +0.002516306759               +0.034236109835
     E_efield               +0.000000000000               +0.000000000000
      E_Fermi               -0.285846891437               -3.889146479135

 PW ALGORITHM --------------- ION=   1  ELEC=  10--------------------------------
  K-point    CG iter num      Time(Sec)
 Energy (eV) & Occupations  for spin=1 K-point=1
      1     -10.582381       2.000000
      2     -10.229572       2.000000
      3      -4.195642       1.998169
      4      -3.897952       1.006639
      5      -3.896890       0.995113
      6      -3.507650       0.000041
      7      -3.506553       0.000038
      8      -2.579304       0.000000
        1       2.000000       0.380000

 Density error is 0.000225703395
                          Error Threshold = 0.000131578563

       Energy                       Rydberg                            eV
   E_KohnSham              -15.110372897151             -205.587170306019
     E_Harris              -15.110367447004             -205.587096152962
       E_band               -4.248912591716              -57.809421551282
   E_one_elec              -14.952547368329             -203.439843824184
    E_Hartree               +7.894740700611             +107.413457760824
         E_xc               -3.937387951386              -53.570911375395
      E_Ewald               -4.104988486688              -55.851233643357
      E_demet               -0.011332700872               -0.154189305585
      E_descf               +0.001142909513               +0.015550081679
     E_efield               +0.000000000000               +0.000000000000
      E_Fermi               -0.286446939137               -3.897310546929

 PW ALGORITHM --------------- ION=   1  ELEC=  11--------------------------------
  K-point    CG iter num      Time(Sec)
 Energy (eV) & Occupations  for spin=1 K-point=1
      1     -10.580725       2.000000
      2     -10.227237       2.000000
      3      -4.194039       1.998071
      4      -3.896518       1.005317
      5      -3.896058       0.996512
      6      -3.505626       0.000051
      7      -3.505132       0.000049
      8      -2.577048       0.000000
        1       2.000000       0.400000

 Density error is 0.000534429718
                          Error Threshold = 0.000002821292

       Energy                       Rydberg                            eV
   E_KohnSham              -15.110333574494             -205.586635293830
     E_Harris              -15.110376346937             -205.587217242772
       E_band               -4.247923001882              -57.795957490860
   E_one_elec              -14.952393966314             -203.437756682688
    E_Hartree               +7.897629602071             +107.452763281637
         E_xc               -3.938630606809              -53.587818569795
      E_Ewald               -4.104988486688              -55.851233643357
      E_demet               -0.011333464995               -0.154199702020
      E_descf               -0.000616651759               -0.008389977606
     E_efield               +0.000000000000               +0.000000000000
      E_Fermi               -0.286363538649               -3.896175825072

 PW ALGORITHM --------------- ION=   1  ELEC=  12--------------------------------
  K-point    CG iter num      Time(Sec)
 Energy (eV) & Occupations  for spin=1 K-point=1
      1     -10.575818       2.000000
      2     -10.221675       2.000000
      3      -4.191068       1.998039
      4      -3.892485       1.002838
      5      -3.892204       0.999026
      6      -3.501052       0.000049
      7      -3.500767       0.000048
      8      -2.572926       0.000000
        1       2.000000       0.400000

 Density error is 0.000042866568
                          Error Threshold = 0.000002821292

       Energy                       Rydberg                            eV
   E_KohnSham              -15.110358381574             -205.586972811461
     E_Harris              -15.110360600921             -205.587003007223
       E_band               -4.245368924003              -57.761207478577
   E_one_elec              -14.952055783829             -203.433155473924
    E_Hartree               +7.896652705442             +107.439471921121
         E_xc               -3.938188329681              -53.581801080766
      E_Ewald               -4.104988486688              -55.851233643357
      E_demet               -0.011331981937               -0.154179523981
      E_descf               -0.000446504880               -0.006075010553
     E_efield               +0.000000000000               +0.000000000000
      E_Fermi               -0.286073952225               -3.892235799634

 PW ALGORITHM --------------- ION=   1  ELEC=  13--------------------------------
  K-point    CG iter num      Time(Sec)
 Energy (eV) & Occupations  for spin=1 K-point=1
      1     -10.577389       2.000000
      2     -10.223581       2.000000
      3      -4.192159       1.998105
      4      -3.893598       1.002063
      5      -3.893538       0.999737
      6      -3.502393       0.000048
      7      -3.502340       0.000047
      8      -2.574359       0.000000
        1       2.000000       0.400000

 Density error is 0.000002423919
                          Error Threshold = 0.000000535832

       Energy                       Rydberg                            eV
   E_KohnSham              -15.110359423394             -205.586986986146
     E_Harris              -15.110359345753             -205.586985929793
       E_band               -4.246220074726              -57.772787978256
   E_one_elec              -14.951971642179             -203.432010668052
    E_Hartree               +7.895569780001             +107.424737964621
         E_xc               -3.937690621622              -53.575029415216
      E_Ewald               -4.104988486688              -55.851233643357
      E_demet               -0.011332216164               -0.154182710799
      E_descf               +0.000053763258               +0.000731486657
     E_efield               +0.000000000000               +0.000000000000
      E_Fermi               -0.286163843417               -3.893458832053

 PW ALGORITHM --------------- ION=   1  ELEC=  14--------------------------------
  K-point    CG iter num      Time(Sec)
 Energy (eV) & Occupations  for spin=1 K-point=1
      1     -10.579135       2.000000
      2     -10.225611       2.000000
      3      -4.193460       1.998096
      4      -3.894920       1.001154
      5      -3.894892       1.000655
      6      -3.503879       0.000048
      7      -3.503844       0.000048
      8      -2.575895       0.000000
        1       2.500000       0.470000

 Density error is 0.000000189570
                          Error Threshold = 0.000000030299

       Energy                       Rydberg                            eV
   E_KohnSham              -15.110359595980             -205.586989334303
     E_Harris              -15.110359660988             -205.586990218790
       E_band               -4.247163097013              -57.785618454705
   E_one_elec              -14.951911620276             -203.431194028173
    E_Hartree               +7.895720267411             +107.426785450878
         E_xc               -3.937772585441              -53.576144590194
      E_Ewald               -4.104988486688              -55.851233643357
      E_demet               -0.011332289631               -0.154183710368
      E_descf               -0.000074881354               -0.001018813089
     E_efield               +0.000000000000               +0.000000000000
      E_Fermi               -0.286262198917               -3.894797027287

 PW ALGORITHM --------------- ION=   1  ELEC=  15--------------------------------
  K-point    CG iter num      Time(Sec)
 Energy (eV) & Occupations  for spin=1 K-point=1
      1     -10.578902       2.000000
      2     -10.225278       2.000000
      3      -4.193335       1.998093
      4      -3.894729       1.001021
      5      -3.894728       1.000789
      6      -3.503613       0.000048
      7      -3.503607       0.000048
      8      -2.575665       0.000000
        1       2.875000       0.510000

 Density error is 0.000000007638
                          Error Threshold = 0.000000002370

       Energy                       Rydberg                            eV
   E_KohnSham              -15.110359642436             -205.586989966367
     E_Harris              -15.110359633987             -205.586989851417
       E_band               -4.247035339537              -57.783880225073
   E_one_elec              -14.951893466170             -203.430947028884
    E_Hartree               +7.895613602961             +107.425334206578
         E_xc               -3.937759087418              -53.575960940160
      E_Ewald               -4.104988486688              -55.851233643357
      E_demet               -0.011332205120               -0.154182560544
      E_descf               +0.000000000000               +0.000000000000
     E_efield               +0.000000000000               +0.000000000000
      E_Fermi               -0.286249176987               -3.894619854834
 charge density convergence is achieved
 final etot is -205.586989966367 eV

 STATE ENERGY(eV) AND OCCUPATIONS. 1/1 kpoint (Cartesian) = 0.00000 0.00000 0.00000 (16877 pws)
 [spin1_state]        1     -10.578902       2.000000
 [spin1_state]        2     -10.225278       2.000000
 [spin1_state]        3      -4.193335       1.998097
 [spin1_state]        4      -3.894729       1.000907
 [spin1_state]        5      -3.894728       1.000900
 [spin1_state]        6      -3.503613       0.000048
 [spin1_state]        7      -3.503607       0.000048
 [spin1_state]        8      -2.575665       0.000000



 --------------------------------------------
 !FINAL_ETOT_IS -205.5869899663668718 eV
 --------------------------------------------



 ><><><><><><><><><><><><><><><><><><><><><><

 Overlap Data For Spillage Minimization

 ><><><><><><><><><><><><><><><><><><><><><><

 File name : INPUTs
                                   smooth = 1
                                    sigma = 0.1000000000000000
                                     ecut = 100.0000000000000000
                                     rcut = 6.0000000000000000
                                tolerence = 0.0000000000010000
                                    kmesh = 1005
                                       dk = 0.0100000000000000
                                    rmesh = 605
                                       dr = 0.0100000000000000
                       number of k points = 1
                          number of bands = 8
                 number of local orbitals = 18
           number of eigenvalues of Jl(x) = 19
 --------------------------------------------------------
 Print the overlap matrixs Q and S for this kpoint
       ik     npw
        1   16877
 --------------------------------------------------------
 OUTPUT THE OVERLAP BETWEEN SPHERICAL BESSEL FUNCTIONS AND BLOCH WAVE FUNCTIONS
 Q = < J_mu, q | Psi_n, k > 

    ik   Type1   Atom1       L
     1      Si       1       0
     1      Si       1       1
     1      Si       1       2
     1      Si       2       0
     1      Si       2       1
     1      Si       2       2
 DONE : jlq3d_overlap Time : 14.2568926811218262 (SEC)

 OUTPUT THE OVERLAP BETWEEN SPHERICAL BESSEL FUNCTIONS
 S = < J_mu,q1 | J_nu,q2 >

    ik   Type1   Atom1      L1   Type2   Atom2      L2
     1      Si       1       0      Si       1       0
     1      Si       1       0      Si       1       1
     1      Si       1       0      Si       1       2
     1      Si       1       1      Si       1       0
     1      Si       1       1      Si       1       1
     1      Si       1       1      Si       1       2
     1      Si       1       2      Si       1       0
     1      Si       1       2      Si       1       1
     1      Si       1       2      Si       1       2
     1      Si       1       0      Si       2       0
     1      Si       1       0      Si       2       1
     1      Si       1       0      Si       2       2
     1      Si       1       1      Si       2       0
     1      Si       1       1      Si       2       1
     1      Si       1       1      Si       2       2
     1      Si       1       2      Si       2       0
     1      Si       1       2      Si       2       1
     1      Si       1       2      Si       2       2
     1      Si       2       0      Si       1       0
     1      Si       2       0      Si       1       1
     1      Si       2       0      Si       1       2
     1      Si       2       1      Si       1       0
     1      Si       2       1      Si       1       1
     1      Si       2       1      Si       1       2
     1      Si       2       2      Si       1       0
     1      Si       2       2      Si       1       1
     1      Si       2       2      Si       1       2
     1      Si       2       0      Si       2       0
     1      Si       2       0      Si       2       1
     1      Si       2       0      Si       2       2
     1      Si       2       1      Si       2       0
     1      Si       2       1      Si       2       1
     1      Si       2       1      Si       2       2
     1      Si       2       2      Si       2       0
     1      Si       2       2      Si       2       1
     1      Si       2       2      Si       2       2
 DONE : Sq_overlap Time : 44.0793745517730713 (SEC)


 ik=0 DONE : BASIS OVERLAP (Q and S) GENERATION. Time : 46.2129597663879395 (SEC)





  |CLASS_NAME---------|NAME---------------|TIME(Sec)-----|CALLS----|AVG------|PER%-------
  A             DC_Driv         divide_frag          0.569         1      0.57      1.23%
  B            PW_Basis              gen_pw           0.57         1      0.57      1.23%
  A             DC_Driv         solve_eachf          45.60         1     45.60     98.68%
  B            Run_Frag        frag_pw_line          45.60         1     45.60     98.68%
  X                 FFT               FFT3D           7.83      1202      0.01     16.93%
  E           potential            v_of_rho           2.78        16      0.17      6.01%
  C            wavefunc             wfcinit           0.19         1      0.19      0.40%
  G           Hamilt_PW            cinitcgg           2.18        16      0.14      4.72%
  H           Hamilt_PW               h_psi           6.75       437      0.02     14.61%
  I           Hamilt_PW          add_vuspsi           0.21       437      0.00      0.45%
  C                Ions         opt_ions_pw          12.29         1     12.29     26.58%
  D           electrons     self_consistent          12.29         1     12.29     26.58%
  E           electrons             c_bands           7.21        15      0.48     15.61%
  F              Hamilt               diago           7.12        15      0.47     15.40%
  G            Diago_CG                diag           5.08        15      0.34     11.00%
  E              Charge             mix_rho           0.76        15      0.05      1.65%
 ----------------------------------------------------------------------------------------

 CLASS_NAME---------|NAME---------------|MEMORY(MB)--------
                                         73.4309
         Charge_Pulay                Rrho        16.0000
         Charge_Pulay               dRrho        14.0000
         Charge_Pulay                drho        14.0000
              Use_FFT              porter         4.0000
             PW_Basis           struc_fac         2.0614
             wavefunc                 evc         2.0602
               Charge                 rho         2.0000
               Charge            rho_save         2.0000
               Charge            rho_core         2.0000
            potential               vltot         2.0000
            potential                  vr         2.0000
            potential                 vrs         2.0000
            potential                vrs1         2.0000
            potential                vnew         2.0000
         Charge_Pulay           rho_save2         2.0000
               Charge                rhog         1.0307
               Charge           rhog_save         1.0307
               Charge           rhog_core         1.0307
 ----------------------------------------------------------

 Start  Time  : Wed Oct  9 18:59:15 2019
 Finish Time  : Wed Oct  9 19:00:01 2019
 Total  Time  : 0 h 0 mins 46 secs 
