<PP_INFO>
Generated using ld1 code
Author: P. Giannozzi    Generation date: 1993
Info: Li LDA 2s1 VonBarth-Car, l=1 local, core correction
    0        The Pseudo was generated with a Non-Relativistic Calculation
  0.00000000000E+00    Local Potential cutoff radius
nl pn  l   occ               Rcut            Rcut US             E pseu
2S  0  0  1.00      2.97000000000      0.00000000000      0.00000000000
2P  0  1  0.00      2.97000000000      0.00000000000      0.00000000000
</PP_INFO>


<PP_HEADER>
   0                   Version Number
  Li                   Element
   NC                  Norm - Conserving pseudopotential
    T                  Nonlinear Core Correction
 SLA  PZ   NOGX NOGC   PZ   Exchange-Correlation functional
    1.00000000000      Z valence
    0.00000000000      Total energy
  0.0000000  0.0000000 Suggested cutoff for wfc and rho
    0                  Max angular momentum component
  149                  Number of points in mesh
    2    1             Number of Wavefunctions, Number of Projectors
 Wavefunctions         nl  l   occ
                       2S  0  1.00
                       2P  1  0.00
</PP_HEADER>


<PP_MESH>
  <PP_R>
  6.10521296291E-03  6.49896536953E-03  6.91811262457E-03  7.36429255502E-03
  7.83924861867E-03  8.34483671665E-03  8.88303244545E-03  9.45593881657E-03
  1.00657944741E-02  1.07149824423E-02  1.14060394372E-02  1.21416657791E-02
  1.29247359439E-02  1.37583097953E-02  1.46456445411E-02  1.55902074613E-02
  1.65956894560E-02  1.76660194678E-02  1.88053798346E-02  2.00182226318E-02
  2.13092870689E-02  2.26836180083E-02  2.41465856781E-02  2.57039066561E-02
  2.73616662080E-02  2.91263420651E-02  3.10048297369E-02  3.30044694546E-02
  3.51330748540E-02  3.73989635068E-02  3.98109894222E-02  4.23785776440E-02
  4.51117610789E-02  4.80212197005E-02  5.11183222816E-02  5.44151708180E-02
  5.79246478168E-02  6.16604666358E-02  6.56372250681E-02  6.98704623837E-02
  7.43767200495E-02  7.91736063652E-02  8.42798652682E-02  8.97154495764E-02
  9.55015989534E-02  1.01660922904E-01  1.08217489119E-01  1.15196917526E-01
  1.22626480390E-01  1.30535208892E-01  1.38954006560E-01  1.47915770027E-01
  1.57455517580E-01  1.67610525990E-01  1.78420476173E-01  1.89927608244E-01
  2.02176886571E-01  2.15216175476E-01  2.29096426264E-01  2.43871876316E-01
  2.59600261024E-01  2.76343039393E-01  2.94165634195E-01  3.13137687604E-01
  3.33333333333E-01  3.54831486306E-01  3.77716151022E-01  4.02076749807E-01
  4.28008472229E-01  4.55612647058E-01  4.84997138206E-01  5.16276766211E-01
  5.49573756900E-01  5.85018218987E-01  6.22748652477E-01  6.62912489861E-01
  7.05666672204E-01  7.51178262404E-01  7.99625097989E-01  8.51196486021E-01
  9.06093942820E-01  9.64531981391E-01  1.02673894964E+00  1.09295792265E+00
  1.16344765249E+00  1.23848357931E+00  1.31835890764E+00  1.40338575205E+00
  1.49389635678E+00  1.59024439399E+00  1.69280634573E+00  1.80198297505E+00
  1.91820089200E+00  2.04191422063E+00  2.17360637344E+00  2.31379194040E+00
  2.46301869964E+00  2.62186975798E+00  2.79096582938E+00  2.97096766040E+00
  3.16257861212E+00  3.36654740849E+00  3.58367106203E+00  3.81479798811E+00
  4.06083132023E+00  4.32273243899E+00  4.60152472869E+00  4.89829757626E+00
  5.21421062806E+00  5.55049832120E+00  5.90847470715E+00  6.28953858642E+00
  6.69517897440E+00  7.12698091971E+00  7.58663169784E+00  8.07592740420E+00
  8.59677997240E+00  9.15122464515E+00  9.74142792708E+00  1.03696960503E+01
  1.10384839862E+01  1.17504050382E+01  1.25082410532E+01  1.33149532919E+01
  1.41736940000E+01  1.50878187254E+01  1.60608994304E+01  1.70967384489E+01
  1.81993833444E+01  1.93731427258E+01  2.06226030835E+01  2.19526467108E+01
  2.33684707822E+01  2.48756076611E+01  2.64799465174E+01  2.81877563402E+01
  3.00057104335E+01  3.19409124924E+01  3.40009243609E+01  3.61937955803E+01
  3.85280948424E+01  4.10129434724E+01  4.36580510703E+01  4.64737534515E+01
  4.94710530342E+01  5.26616618317E+01  5.60580472173E+01  5.96734806406E+01
  6.35220894862E+01
  </PP_R>
  <PP_RAB>
  3.81575810182E-04  4.06185335596E-04  4.32382039035E-04  4.60268284689E-04
  4.89953038667E-04  5.21552294791E-04  5.55189527841E-04  5.90996176036E-04
  6.29112154632E-04  6.69686402643E-04  7.12877464826E-04  7.58854111195E-04
  8.07795996494E-04  8.59894362204E-04  9.15352783821E-04  9.74387966332E-04
  1.03723059100E-03  1.10412621674E-03  1.17533623966E-03  1.25113891449E-03
  1.33183044181E-03  1.41772612552E-03  1.50916160488E-03  1.60649416601E-03
  1.71010413800E-03  1.82039637907E-03  1.93780185856E-03  2.06277934091E-03
  2.19581717837E-03  2.33743521917E-03  2.48818683889E-03  2.64866110275E-03
  2.81948506743E-03  3.00132623128E-03  3.19489514260E-03  3.40094817612E-03
  3.62029048855E-03  3.85377916474E-03  4.10232656675E-03  4.36690389898E-03
  4.64854500309E-03  4.94835039782E-03  5.26749157927E-03  5.60721559852E-03
  5.96884993459E-03  6.35380768148E-03  6.76359306997E-03  7.19980734535E-03
  7.66415502441E-03  8.15845055577E-03  8.68462540997E-03  9.24473562669E-03
  9.84096984877E-03  1.04756578744E-02  1.11512797608E-02  1.18704755152E-02
  1.26360554107E-02  1.34510109672E-02  1.43185266415E-02  1.52419922697E-02
  1.62250163140E-02  1.72714399621E-02  1.83853521372E-02  1.95711054753E-02
  2.08333333333E-02  2.21769678941E-02  2.36072594389E-02  2.51297968629E-02
  2.67505295143E-02  2.84757904411E-02  3.03123211379E-02  3.22672978882E-02
  3.43483598063E-02  3.65636386867E-02  3.89217907798E-02  4.14320306163E-02
  4.41041670128E-02  4.69486414003E-02  4.99765686243E-02  5.31997803763E-02
  5.66308714262E-02  6.02832488369E-02  6.41711843525E-02  6.83098701654E-02
  7.27154782805E-02  7.74052237071E-02  8.23974317275E-02  8.77116095030E-02
  9.33685222987E-02  9.93902746243E-02  1.05800396608E-01  1.12623935940E-01
  1.19887555750E-01  1.27619638789E-01  1.35850398340E-01  1.44611996275E-01
  1.53938668728E-01  1.63866859874E-01  1.74435364336E-01  1.85685478775E-01
  1.97661163257E-01  2.10409213031E-01  2.23979441377E-01  2.38424874257E-01
  2.53801957515E-01  2.70170777437E-01  2.87595295543E-01  3.06143598516E-01
  3.25888164254E-01  3.46906145075E-01  3.69279669197E-01  3.93096161651E-01
  4.18448685900E-01  4.45436307482E-01  4.74164481115E-01  5.04745462763E-01
  5.37298748275E-01  5.71951540322E-01  6.08839245442E-01  6.48106003145E-01
  6.89905249139E-01  7.34400314887E-01  7.81765065825E-01  8.32184580746E-01
  8.85855875001E-01  9.42988670339E-01  1.00380621440E+00  1.06854615305E+00
  1.13746145902E+00  1.21082142036E+00  1.28891269272E+00  1.37204041943E+00
  1.46052942389E+00  1.55472547882E+00  1.65499665734E+00  1.76173477126E+00
  1.87535690209E+00  1.99630703077E+00  2.12505777256E+00  2.26211222377E+00
  2.40800592765E+00  2.56330896702E+00  2.72862819189E+00  2.90460959072E+00
  3.09194081464E+00  3.29135386448E+00  3.50362795108E+00  3.72959254003E+00
  3.97013059289E+00
  </PP_RAB>
</PP_MESH>


<PP_NLCC>
  1.34170114366E-02  1.34170129575E-02  1.34170146804E-02  1.34170166319E-02
  1.34170188424E-02  1.34170213462E-02  1.34170241818E-02  1.34170273932E-02
  1.34170310297E-02  1.34170351473E-02  1.34170398093E-02  1.34170450869E-02
  1.34170510607E-02  1.34170578216E-02  1.34170654720E-02  1.34170741271E-02
  1.34170839171E-02  1.34170949878E-02  1.34171075034E-02  1.34171216480E-02
  1.34171376279E-02  1.34171556738E-02  1.34171760432E-02  1.34171990230E-02
  1.34172249320E-02  1.34172541231E-02  1.34172869857E-02  1.34173239476E-02
  1.34173654764E-02  1.34174120794E-02  1.34174643033E-02  1.34175227307E-02
  1.34175879752E-02  1.34176606718E-02  1.34177414628E-02  1.34178309773E-02
  1.34179298011E-02  1.34180384356E-02  1.34181572408E-02  1.34182863575E-02
  1.34184256038E-02  1.34185743357E-02  1.34187312641E-02  1.34188942116E-02
  1.34190597955E-02  1.34192230130E-02  1.34193767011E-02  1.34195108372E-02
  1.34196116344E-02  1.34196603757E-02  1.34196319156E-02  1.34194927590E-02
  1.34191986062E-02  1.34186912234E-02  1.34178944652E-02  1.34167092359E-02
  1.34150071272E-02  1.34126224153E-02  1.34093420355E-02  1.34048930811E-02
  1.33989272986E-02  1.33910019731E-02  1.33805565294E-02  1.33668841250E-02
  1.33490974990E-02  1.33260883995E-02  1.32964800702E-02  1.32585726023E-02
  1.32102815111E-02  1.31490707718E-02  1.30718828538E-02  1.29750701463E-02
  1.28543346783E-02  1.27046862861E-02  1.25204333613E-02  1.22952248506E-02
  1.20221668372E-02  1.16940409635E-02  1.13036537583E-02  1.08443435461E-02
  1.03106623256E-02  9.69923069376E-03  9.00973174546E-03  8.24596367345E-03
  7.41681290074E-03  6.53694844245E-03  5.62699050850E-03  4.71289741995E-03
  3.82437481424E-03  2.99226453496E-03  2.24511972732E-03  1.60547744927E-03
  1.08660697885E-03  6.90607487506E-04  4.08531085391E-04  2.22688595628E-04
  1.10592897223E-04  4.94024305166E-05  1.95645205478E-05  6.75730231831E-06
  1.99806400415E-06  4.95297592618E-07  1.00515059804E-07  1.62565819680E-08
  2.03255010516E-09  1.89800436337E-10  1.27304131813E-11  5.86776903711E-13
  1.76780696948E-14  0.00000000000E+00  0.00000000000E+00  0.00000000000E+00
  0.00000000000E+00  0.00000000000E+00  0.00000000000E+00  0.00000000000E+00
  0.00000000000E+00  0.00000000000E+00  0.00000000000E+00  0.00000000000E+00
  0.00000000000E+00  0.00000000000E+00  0.00000000000E+00  0.00000000000E+00
  0.00000000000E+00  0.00000000000E+00  0.00000000000E+00  0.00000000000E+00
  0.00000000000E+00  0.00000000000E+00  0.00000000000E+00  0.00000000000E+00
  0.00000000000E+00  0.00000000000E+00  0.00000000000E+00  0.00000000000E+00
  0.00000000000E+00  0.00000000000E+00  0.00000000000E+00  0.00000000000E+00
  0.00000000000E+00  0.00000000000E+00  0.00000000000E+00  0.00000000000E+00
  0.00000000000E+00  0.00000000000E+00  0.00000000000E+00  0.00000000000E+00
  0.00000000000E+00
</PP_NLCC>


<PP_LOCAL>
 -5.24381509222E+00 -5.24379537512E+00 -5.24377303282E+00 -5.24374771580E+00
 -5.24371902801E+00 -5.24368652070E+00 -5.24364968535E+00 -5.24360794576E+00
 -5.24356064905E+00 -5.24350705542E+00 -5.24344632659E+00 -5.24337751272E+00
 -5.24329953758E+00 -5.24321118168E+00 -5.24311106327E+00 -5.24299761674E+00
 -5.24286906819E+00 -5.24272340772E+00 -5.24255835805E+00 -5.24237133907E+00
 -5.24215942750E+00 -5.24191931142E+00 -5.24164723861E+00 -5.24133895816E+00
 -5.24098965431E+00 -5.24059387159E+00 -5.24014543004E+00 -5.23963732928E+00
 -5.23906164002E+00 -5.23840938123E+00 -5.23767038122E+00 -5.23683312066E+00
 -5.23588455495E+00 -5.23480991362E+00 -5.23359247359E+00 -5.23221330322E+00
 -5.23065097337E+00 -5.22888123140E+00 -5.22687663372E+00 -5.22460613173E+00
 -5.22203460571E+00 -5.21912234063E+00 -5.21582443711E+00 -5.21209015056E+00
 -5.20786215044E+00 -5.20307569165E+00 -5.19765768917E+00 -5.19152568682E+00
 -5.18458671111E+00 -5.17673600100E+00 -5.16785560496E+00 -5.15781283794E+00
 -5.14645859242E+00 -5.13362550059E+00 -5.11912594888E+00 -5.10274995145E+00
 -5.08426289776E+00 -5.06340319973E+00 -5.03987987866E+00 -5.01337015110E+00
 -4.98351709744E+00 -4.94992752902E+00 -4.91217020933E+00 -4.86977463562E+00
 -4.82223064890E+00 -4.76898921540E+00 -4.70946481138E+00 -4.64303994539E+00
 -4.56907246543E+00 -4.48690641680E+00 -4.39588732967E+00 -4.29538290367E+00
 -4.18481009278E+00 -4.06366953299E+00 -3.93158803808E+00 -3.78836943667E+00
 -3.63405324055E+00 -3.46897941757E+00 -3.29385580451E+00 -3.10982240486E+00
 -2.91850406214E+00 -2.72204007807E+00 -2.52307686497E+00 -2.32470867097E+00
 -2.13035315334E+00 -1.94355461170E+00 -1.76771918448E+00 -1.60580320321E+00
 -1.45999586395E+00 -1.33145503796E+00 -1.22016229711E+00 -1.12495156676E+00
 -1.04373090285E+00 -9.73863920447E-01 -9.12623659056E-01 -8.57601966644E-01
 -8.06971375501E-01 -7.59553243991E-01 -7.14719599652E-01 -6.72208630721E-01
 -6.31940677981E-01 -5.93888841615E-01 -5.58014526033E-01 -5.24249851453E-01
 -4.92502839524E-01 -4.62668504761E-01 -4.34638152533E-01 -4.08305054920E-01
 -3.83567157314E-01 -3.60328006255E-01 -3.38496836927E-01 -3.17988350414E-01
 -2.98722410207E-01 -2.80623734304E-01 -2.63621601740E-01 -2.47649576315E-01
 -2.32645246990E-01 -2.18549984024E-01 -2.05308709870E-01 -1.92869683961E-01
 -1.81184300534E-01 -1.70206898698E-01 -1.59894584018E-01 -1.50207060900E-01
 -1.41106475136E-01 -1.32557265990E-01 -1.24526027242E-01 -1.16981376652E-01
 -1.09893833332E-01 -1.03235702555E-01 -9.69809675290E-02 -9.11051877410E-02
 -8.55854034540E-02 -8.04000459908E-02 -7.55288534546E-02 -7.09527915546E-02
 -6.66539792295E-02 -6.26156187766E-02 -5.88219302149E-02 -5.52580896238E-02
 -5.19101712187E-02 -4.87650929358E-02 -4.58105653132E-02 -4.30350434701E-02
 -4.04276819945E-02 -3.79782925649E-02 -3.56773041388E-02 -3.35157255540E-02
 -3.14851103951E-02
</PP_LOCAL>


<PP_NONLOCAL>
  <PP_BETA>
    1    0             Beta    L
   120
  5.59180466005E-03  5.95244100487E-03  6.33633550134E-03  6.74498801257E-03
  7.17999516424E-03  7.64305644671E-03  8.13598072643E-03  8.66069369618E-03
  9.21924519337E-03  9.81381702107E-03  1.04467316921E-02  1.11204613421E-02
  1.18376365883E-02  1.26010598043E-02  1.34137115962E-02  1.42787645446E-02
  1.51995974719E-02  1.61798053075E-02  1.72232130527E-02  1.83338948784E-02
  1.95161833840E-02  2.07746945610E-02  2.21143353459E-02  2.35403331395E-02
  2.50582456257E-02  2.66739923605E-02  2.83938674959E-02  3.02245729225E-02
  3.21732354084E-02  3.42474405426E-02  3.64552555108E-02  3.88052638088E-02
  4.13065933911E-02  4.39689537461E-02  4.68026696044E-02  4.98187169666E-02
  5.30287648523E-02  5.64452153531E-02  6.00812460628E-02  6.39508554902E-02
  6.80689085569E-02  7.24511852539E-02  7.71144286886E-02  8.20763934712E-02
  8.73558978431E-02  9.29728683188E-02  9.89483909853E-02  1.05304748470E-01
  1.12065463259E-01  1.19255321769E-01  1.26900399552E-01  1.35028029611E-01
  1.43666841236E-01  1.52846644410E-01  1.62598349279E-01  1.72953841292E-01
  1.83945695126E-01  1.95606888594E-01  2.07970334596E-01  2.21068190841E-01
  2.34931068316E-01  2.49586794087E-01  2.65058883547E-01  2.81364533100E-01
  2.98511852017E-01  3.16496483849E-01  3.35297061216E-01  3.54869544280E-01
  3.75140032448E-01  3.95995949928E-01  4.17275150098E-01  4.38753110857E-01
  4.60128104911E-01  4.81004795268E-01  5.00877296634E-01  5.19113391620E-01
  5.34942887086E-01  5.47454340640E-01  5.55606281912E-01  5.58260125029E-01
  5.54243321200E-01  5.42449709938E-01  5.21980480700E-01  4.92321389344E-01
  4.53537438631E-01  4.06450967685E-01  3.52751268829E-01  2.94976749940E-01
  2.36320345389E-01  1.80246828464E-01  1.29971433336E-01  8.79175387081E-02
  5.53120610154E-02  3.20580929304E-02  1.69360675166E-02  8.05900886132E-03
  3.40840246298E-03  1.26211926403E-03  4.02328020071E-04  1.08316855150E-04
  2.41035572515E-05  4.32664977659E-06  6.09450504001E-07  6.52963474474E-08
  5.13613682227E-09  2.84925969105E-10  1.06496377877E-11  2.54596762945E-13
  3.67963402914E-15  3.69957309232E-17  0.00000000000E+00  0.00000000000E+00
  0.00000000000E+00  0.00000000000E+00  0.00000000000E+00  0.00000000000E+00
  0.00000000000E+00  0.00000000000E+00  0.00000000000E+00  0.00000000000E+00
  </PP_BETA>
  <PP_DIJ>
    1                  Number of nonzero Dij
    1    1  1.05544869492E+01
  </PP_DIJ>
</PP_NONLOCAL>


<PP_PSWFC>
2S    0  1.00          Wavefunction
  5.24259040000E-04  5.58073470000E-04  5.94069280000E-04  6.32387270000E-04
  6.73177350000E-04  7.16599120000E-04  7.62822490000E-04  8.12028390000E-04
  8.64409470000E-04  9.20170850000E-04  9.79530960000E-04  1.04272240000E-03
  1.10999280000E-03  1.18160610000E-03  1.25784320000E-03  1.33900330000E-03
  1.42540530000E-03  1.51738880000E-03  1.61531550000E-03  1.71957110000E-03
  1.83056630000E-03  1.94873930000E-03  2.07455670000E-03  2.20851650000E-03
  2.35114930000E-03  2.50302160000E-03  2.66473740000E-03  2.83694180000E-03
  3.02032320000E-03  3.21561720000E-03  3.42360960000E-03  3.64514070000E-03
  3.88110920000E-03  4.13247720000E-03  4.40027520000E-03  4.68560770000E-03
  4.98965980000E-03  5.31370420000E-03  5.65910910000E-03  6.02734720000E-03
  6.42000570000E-03  6.83879780000E-03  7.28557560000E-03  7.76234480000E-03
  8.27128190000E-03  8.81475330000E-03  9.39533820000E-03  1.00158540000E-02
  1.06793870000E-02  1.13893270000E-02  1.21494090000E-02  1.29637580000E-02
  1.38369510000E-02  1.47740770000E-02  1.57808160000E-02  1.68635330000E-02
  1.80293800000E-02  1.92864270000E-02  2.06438110000E-02  2.21119070000E-02
  2.37025430000E-02  2.54292370000E-02  2.73074860000E-02  2.93551060000E-02
  3.15926150000E-02  3.40436990000E-02  3.67357310000E-02  3.97003780000E-02
  4.29742830000E-02  4.65998390000E-02  5.06260220000E-02  5.51093000000E-02
  6.01145660000E-02  6.57160460000E-02  7.19981100000E-02  7.90558530000E-02
  8.69952840000E-02  9.59328720000E-02  1.05994170000E-01  1.17311100000E-01
  1.30017530000E-01  1.44242650000E-01  1.60101770000E-01  1.77684500000E-01
  1.97040290000E-01  2.18162300000E-01  2.40970890000E-01  2.65299110000E-01
  2.90882690000E-01  3.17357570000E-01  3.44266750000E-01  3.71076850000E-01
  3.97202600000E-01  4.22035280000E-01  4.44970400000E-01  4.65430760000E-01
  4.82883060000E-01  4.96849060000E-01  5.06914100000E-01  5.12735530000E-01
  5.14052810000E-01  5.10698890000E-01  5.02611840000E-01  4.89844710000E-01
  4.72572580000E-01  4.51095430000E-01  4.25836080000E-01  3.97332370000E-01
  3.66223170000E-01  3.33227920000E-01  2.99120110000E-01  2.64695570000E-01
  2.30737290000E-01  1.97979030000E-01  1.67070560000E-01  1.38547820000E-01
  1.12810550000E-01  9.01100940000E-02  7.05481860000E-02  5.40869010000E-02
  4.05681150000E-02  2.97399700000E-02  2.12870140000E-02  1.48606060000E-02
  1.01065290000E-02  6.68755600000E-03  4.29972740000E-03  2.68208050000E-03
  1.62043030000E-03  9.46354250000E-04  5.32903450000E-04  2.89089030000E-04
  1.50756190000E-04  7.53823230000E-05  3.60438950000E-05  1.64323550000E-05
  7.12076750000E-06  2.92330190000E-06  1.13292540000E-06  4.12915570000E-07
  1.40956340000E-07  4.48713060000E-08  1.32574870000E-08  3.61695980000E-09
  9.06307600000E-10  2.08055320000E-10  4.72444330000E-11  9.73063800000E-12
  1.80641060000E-12
2P    1  0.00          Wavefunction
  8.84526530000E-06  1.00229730000E-05  1.13574840000E-05  1.28696740000E-05
  1.45831970000E-05  1.65248580000E-05  1.87250290000E-05  2.12181240000E-05
  2.40431380000E-05  2.72442570000E-05  3.08715470000E-05  3.49817370000E-05
  3.96391040000E-05  4.49164790000E-05  5.08963840000E-05  5.76723180000E-05
  6.53502180000E-05  7.40501120000E-05  8.39079890000E-05  9.50779210000E-05
  1.07734460000E-04  1.22075370000E-04  1.38324680000E-04  1.56736180000E-04
  1.77597380000E-04  2.01233950000E-04  2.28014780000E-04  2.58357710000E-04
  2.92735950000E-04  3.31685450000E-04  3.75813110000E-04  4.25806160000E-04
  4.82442670000E-04  5.46603540000E-04  6.19285880000E-04  7.01618210000E-04
  7.94877630000E-04  9.00509040000E-04  1.02014690000E-03  1.15563970000E-03
  1.30907730000E-03  1.48282200000E-03  1.67954280000E-03  1.90225450000E-03
  2.15436050000E-03  2.43970160000E-03  2.76260930000E-03  3.12796540000E-03
  3.54126820000E-03  4.00870520000E-03  4.53723280000E-03  5.13466380000E-03
  5.80976180000E-03  6.57234390000E-03  7.43338960000E-03  8.40515670000E-03
  9.50130180000E-03  1.07370050000E-02  1.21290940000E-02  1.36961650000E-02
  1.54586990000E-02  1.74391570000E-02  1.96620610000E-02  2.21540340000E-02
  2.49437980000E-02  2.80621160000E-02  3.15416470000E-02  3.54167150000E-02
  3.97229500000E-02  4.44967970000E-02  4.97748680000E-02  5.55931120000E-02
  6.19858160000E-02  6.89844210000E-02  7.66161970000E-02  8.49028100000E-02
  9.38588710000E-02  1.03490570000E-01  1.13794570000E-01  1.24757240000E-01
  1.36354590000E-01  1.48552830000E-01  1.61309790000E-01  1.74577230000E-01
  1.88303620000E-01  2.02437270000E-01  2.16929040000E-01  2.31733910000E-01
  2.46810860000E-01  2.62120140000E-01  2.77618010000E-01  2.93249200000E-01
  3.08937920000E-01  3.24579090000E-01  3.40031310000E-01  3.55113170000E-01
  3.69603680000E-01  3.83246690000E-01  3.95758320000E-01  4.06836280000E-01
  4.16169790000E-01  4.23449850000E-01  4.28379650000E-01  4.30685580000E-01
  4.30128860000E-01  4.26518020000E-01  4.19721610000E-01  4.09680870000E-01
  3.96420990000E-01  3.80060130000E-01  3.60814700000E-01  3.38999780000E-01
  3.15023400000E-01  2.89374250000E-01  2.62602730000E-01  2.35296240000E-01
  2.08050420000E-01  1.81438650000E-01  1.55982780000E-01  1.32127850000E-01
  1.10223120000E-01  9.05111970000E-02  7.31256470000E-02  5.80966560000E-02
  4.53633600000E-02  3.47908260000E-02  2.61894520000E-02  1.93346880000E-02
  1.39852960000E-02  9.89891010000E-03  6.84549510000E-03  4.62637550000E-03
  3.05174070000E-03  1.96166090000E-03  1.22665960000E-03  7.44826110000E-04
  4.38301170000E-04  2.49447700000E-04  1.36999850000E-04  7.24398170000E-05
  3.67847870000E-05  1.78911860000E-05  8.31113860000E-06  3.67639340000E-06
  1.54358080000E-06  6.13090990000E-07  2.29665340000E-07  8.12789660000E-08
  2.85296990000E-08
</PP_PSWFC>


<PP_RHOATOM>
  2.74847541022E-07  3.11445997918E-07  3.52918309440E-07  3.99913659258E-07
  4.53167744553E-07  5.13514298785E-07  5.81898151250E-07  6.59390106166E-07
  7.47203731826E-07  8.46714393190E-07  9.59480901599E-07  1.08727000346E-06
  1.23208401605E-06  1.39619297556E-06  1.58216951579E-06  1.79292983741E-06
  2.03178026927E-06  2.30246877037E-06  2.60924416454E-06  2.95692476796E-06
  3.35097297870E-06  3.79758485936E-06  4.30378550151E-06  4.87754513077E-06
  5.52790303089E-06  6.26511713007E-06  7.10082541096E-06  8.04823877659E-06
  9.12235223246E-06  1.03401939769E-05  1.17211026932E-05  1.32870507228E-05
  1.50630086223E-05  1.70773678085E-05  1.93624218357E-05  2.19549195183E-05
  2.48967049197E-05  2.82354523251E-05  3.20255158057E-05  3.63289142693E-05
  4.12164731880E-05  4.67691553493E-05  5.30796118233E-05  6.02539967941E-05
  6.84141042693E-05  7.76998757399E-05  8.82723798924E-05  1.00317331349E-04
  1.14049306696E-04  1.29716769513E-04  1.47608139049E-04  1.68059021483E-04
  1.91461212976E-04  2.18273351202E-04  2.49034153626E-04  2.84378745242E-04
  3.25058543184E-04  3.71966266426E-04  4.26166932604E-04  4.88936431177E-04
  5.61810544667E-04  6.46646094402E-04  7.45698791640E-04  8.61722248271E-04
  9.98093322538E-04  1.15897344160E-03  1.34951393210E-03  1.57612001334E-03
  1.84678899936E-03  2.17154499483E-03  2.56299410354E-03  3.03703494649E-03
  3.61376104537E-03  4.31859870187E-03  5.18372784357E-03  6.24982789356E-03
  7.56817943824E-03  9.20311593017E-03  1.12347640740E-02  1.37618941832E-02
  1.69045581073E-02  2.08059420790E-02  2.56325767571E-02  3.15717815402E-02
  3.88248758833E-02  4.75947891413E-02  5.80669698274E-02  7.03836177668E-02
  8.46127393416E-02  1.00715827236E-01  1.18519595156E-01  1.37698028606E-01
  1.57769905447E-01  1.78113777565E-01  1.97998656876E-01  2.16625792354E-01
  2.33176049635E-01  2.46858988423E-01  2.56961904779E-01  2.62897723724E-01
  2.64250291469E-01  2.60813356247E-01  2.52618661708E-01  2.39947839915E-01
  2.23324843368E-01  2.03487086967E-01  1.81336367030E-01  1.57873012250E-01
  1.34119410245E-01  1.11040846668E-01  8.94728402064E-02  7.00637447776E-02
  5.32396969965E-02  3.91956963197E-02  2.79125720187E-02  1.91954984268E-02
  1.27262201913E-02  8.11982904069E-03  4.97704654789E-03  2.92539285978E-03
  1.64577195465E-03  8.84465815601E-04  4.53136965036E-04  2.20837610687E-04
  1.02141928428E-04  4.47234052531E-05  1.84876557143E-05  7.19355580848E-06
  2.62579435716E-06  8.95586366493E-07  2.83986087022E-07  8.35724672663E-08
  2.27274288233E-08  5.68249462088E-09  1.29916236677E-09  2.70022290846E-10
  5.07053297891E-11  8.54569399854E-12  1.28351996197E-12  1.70499267948E-13
  1.98686897862E-14  2.01343410215E-15  1.75760961555E-16  1.30823981948E-17
  8.21393465818E-19  4.32870161803E-20  2.23203644949E-21  9.46853158870E-23
  3.26311925579E-24
</PP_RHOATOM>
