  16   16
1 1
11.524147946647805 0.0 -0.0
-0.0 11.524147946647807 -0.0
0.0 1.8897261349925716e-15 11.524147946647801
1 2
0.914017758352083 0.0 0.0
-0.0 -0.33533835448918464 -0.4879979993672006
0.0 -0.48799799936719873 -0.33533835448918464
1 3
-0.33533835448918464 0.0 -0.48799799936719873
0.0 0.9140177583520849 -0.0
-0.48799799936719873 0.0 -0.33533835448918464
1 4
-0.33533835448918464 0.4879979993672006 0.0
0.48799799936719873 -0.33533835448918464 0.0
0.0 -0.0 0.914017758352083
1 5
-0.33533835448918464 -0.48799799936719873 -0.0
-0.4879979993672006 -0.33533835448918464 -0.0
-0.0 -0.0 0.914017758352083
1 6
-0.33533835448918464 -0.0 0.48799799936719873
0.0 0.914017758352083 -0.0
0.48799799936719873 0.0 -0.33533835448918464
1 7
0.914017758352083 0.0 -0.0
-0.0 -0.33533835448918464 0.4879979993672006
0.0 0.48799799936719873 -0.33533835448918464
1 8
-0.13285328808861133 0.0 -0.0
0.0 -0.13285328808861133 -0.0
0.0 -0.0 -0.13285328808861133
1 9
0.12200068241257472 -0.13980235290637272 -0.13980235290637272
-0.13980235290637272 0.12200068241257472 -0.13980235290637272
-0.13980235290637272 -0.13980235290637272 0.12200068241257472
1 10
0.12200068241257472 0.13980235290637272 0.13980235290637272
0.13980235290637272 0.12200068241257472 -0.13980235290637272
0.13980235290637272 -0.13980235290637272 0.12200068241257472
1 11
0.12200068241257472 0.13980235290637272 -0.13980235290637272
0.13980235290637272 0.12200068241257472 0.13980235290637272
-0.13980235290637272 0.13980235290637272 0.12200068241257472
1 12
-3.0914948483550635 -1.5214944075169428 1.5214944075169428
-1.5214944075169428 -3.0914948483550635 1.5214944075169428
1.5214944075169428 1.5214944075169428 -3.0914948483550617
1 13
0.12200068241257472 -0.13980235290637272 0.13980235290637272
-0.13980235290637272 0.12200068241257472 0.13980235290637272
0.13980235290637272 0.13980235290637272 0.12200068241257472
1 14
-3.0914948483550635 1.5214944075169428 -1.5214944075169428
1.5214944075169428 -3.0914948483550635 1.5214944075169428
-1.5214944075169428 1.5214944075169428 -3.09149484835506
1 15
-3.0914948483550635 1.5214944075169428 1.5214944075169428
1.5214944075169428 -3.0914948483550635 -1.5214944075169428
1.5214944075169428 -1.5214944075169428 -3.0914948483550617
1 16
-3.0914948483550635 -1.5214944075169428 -1.5214944075169428
-1.5214944075169428 -3.0914948483550635 -1.5214944075169428
-1.5214944075169428 -1.5214944075169428 -3.09149484835506
2 1
0.914017758352083 0.0 0.0
0.0 -0.33533835448918464 -0.4879979993672006
0.0 -0.48799799936719873 -0.33533835448918464
2 2
11.524147946647805 1.8897261349925716e-15 -1.8897261349925716e-15
0.0 11.524147946647807 -0.0
-1.8897261349925716e-15 0.0 11.524147946647807
2 3
-0.33533835448918464 0.4879979993672006 -0.0
0.48799799936719873 -0.33533835448918464 0.0
-0.0 -0.0 0.9140177583520849
2 4
-0.33533835448918464 -0.0 -0.48799799936719873
-0.0 0.9140177583520849 -0.0
-0.48799799936719873 0.0 -0.33533835448918464
2 5
-0.33533835448918464 -0.0 0.4879979993672006
-0.0 0.914017758352083 0.0
0.48799799936719873 0.0 -0.33533835448918464
2 6
-0.33533835448918464 -0.48799799936719873 -0.0
-0.4879979993672006 -0.33533835448918464 -0.0
-0.0 -0.0 0.9140177583520849
2 7
-0.13285328808861133 -0.0 0.0
-0.0 -0.13285328808861133 0.0
0.0 -0.0 -0.13285328808861133
2 8
0.914017758352083 -0.0 0.0
-0.0 -0.33533835448918464 0.4879979993672006
0.0 0.48799799936719873 -0.33533835448918464
2 9
0.12200068241257472 0.13980235290637272 0.13980235290637272
0.13980235290637272 0.12200068241257472 -0.13980235290637272
0.13980235290637272 -0.13980235290637272 0.12200068241257472
2 10
0.12200068241257472 -0.13980235290637272 -0.13980235290637272
-0.13980235290637272 0.12200068241257472 -0.13980235290637272
-0.13980235290637272 -0.13980235290637272 0.12200068241257472
2 11
-3.0914948483550635 -1.5214944075169428 1.5214944075169448
-1.5214944075169428 -3.0914948483550635 1.5214944075169428
1.5214944075169428 1.5214944075169428 -3.0914948483550617
2 12
0.12200068241257472 0.13980235290637272 -0.13980235290637272
0.13980235290637272 0.12200068241257472 0.13980235290637272
-0.13980235290637272 0.13980235290637272 0.12200068241257472
2 13
-3.0914948483550617 1.5214944075169428 -1.5214944075169428
1.5214944075169428 -3.0914948483550635 1.5214944075169428
-1.521494407516941 1.5214944075169428 -3.0914948483550617
2 14
0.12200068241257472 -0.13980235290637272 0.13980235290637272
-0.13980235290637272 0.12200068241257472 0.13980235290637272
0.13980235290637272 0.13980235290637272 0.12200068241257472
2 15
-3.0914948483550617 -1.5214944075169428 -1.5214944075169428
-1.5214944075169428 -3.0914948483550635 -1.5214944075169448
-1.5214944075169428 -1.5214944075169428 -3.0914948483550617
2 16
-3.0914948483550635 1.5214944075169428 1.5214944075169448
1.5214944075169428 -3.0914948483550635 -1.5214944075169428
1.5214944075169428 -1.5214944075169428 -3.0914948483550635
3 1
-0.33533835448918464 -0.0 -0.48799799936719873
-0.0 0.9140177583520849 -0.0
-0.48799799936719873 0.0 -0.33533835448918464
3 2
-0.33533835448918464 0.4879979993672006 -0.0
0.48799799936719873 -0.33533835448918464 0.0
-0.0 -0.0 0.9140177583520849
3 3
11.524147946647805 1.8897261349925716e-15 -1.8897261349925716e-15
0.0 11.524147946647807 -0.0
-1.8897261349925716e-15 0.0 11.524147946647807
3 4
0.914017758352083 0.0 0.0
0.0 -0.33533835448918464 -0.4879979993672006
0.0 -0.48799799936719873 -0.33533835448918464
3 5
0.914017758352083 -0.0 0.0
-0.0 -0.33533835448918464 0.4879979993672006
0.0 0.48799799936719873 -0.33533835448918464
3 6
-0.13285328808861133 -0.0 0.0
-0.0 -0.13285328808861133 0.0
0.0 -0.0 -0.13285328808861133
3 7
-0.33533835448918464 -0.48799799936719873 -0.0
-0.4879979993672006 -0.33533835448918464 -0.0
-0.0 -0.0 0.9140177583520849
3 8
-0.33533835448918464 -0.0 0.4879979993672006
-0.0 0.914017758352083 0.0
0.48799799936719873 0.0 -0.33533835448918464
3 9
0.12200068241257472 0.13980235290637272 -0.13980235290637272
0.13980235290637272 0.12200068241257472 0.13980235290637272
-0.13980235290637272 0.13980235290637272 0.12200068241257472
3 10
-3.0914948483550635 -1.5214944075169428 1.5214944075169448
-1.5214944075169428 -3.0914948483550635 1.5214944075169428
1.5214944075169428 1.5214944075169428 -3.0914948483550617
3 11
0.12200068241257472 -0.13980235290637272 -0.13980235290637272
-0.13980235290637272 0.12200068241257472 -0.13980235290637272
-0.13980235290637272 -0.13980235290637272 0.12200068241257472
3 12
0.12200068241257472 0.13980235290637272 0.13980235290637272
0.13980235290637272 0.12200068241257472 -0.13980235290637272
0.13980235290637272 -0.13980235290637272 0.12200068241257472
3 13
-3.0914948483550635 1.5214944075169428 1.5214944075169448
1.5214944075169428 -3.0914948483550635 -1.5214944075169428
1.5214944075169428 -1.5214944075169428 -3.0914948483550635
3 14
-3.0914948483550617 -1.5214944075169428 -1.5214944075169428
-1.5214944075169428 -3.0914948483550635 -1.5214944075169448
-1.5214944075169428 -1.5214944075169428 -3.0914948483550617
3 15
0.12200068241257472 -0.13980235290637272 0.13980235290637272
-0.13980235290637272 0.12200068241257472 0.13980235290637272
0.13980235290637272 0.13980235290637272 0.12200068241257472
3 16
-3.0914948483550617 1.5214944075169428 -1.5214944075169428
1.5214944075169428 -3.0914948483550635 1.5214944075169428
-1.521494407516941 1.5214944075169428 -3.0914948483550617
4 1
-0.33533835448918464 0.4879979993672006 -0.0
0.48799799936719873 -0.33533835448918464 0.0
-0.0 -0.0 0.9140177583520849
4 2
-0.33533835448918464 -0.0 -0.48799799936719873
-0.0 0.9140177583520849 -0.0
-0.48799799936719873 0.0 -0.33533835448918464
4 3
0.914017758352083 0.0 0.0
0.0 -0.33533835448918464 -0.4879979993672006
0.0 -0.48799799936719873 -0.33533835448918464
4 4
11.524147946647805 1.8897261349925716e-15 -1.8897261349925716e-15
0.0 11.524147946647807 -0.0
-1.8897261349925716e-15 0.0 11.524147946647807
4 5
-0.13285328808861133 -0.0 0.0
-0.0 -0.13285328808861133 0.0
0.0 -0.0 -0.13285328808861133
4 6
0.914017758352083 -0.0 0.0
-0.0 -0.33533835448918464 0.4879979993672006
0.0 0.48799799936719873 -0.33533835448918464
4 7
-0.33533835448918464 -0.0 0.4879979993672006
-0.0 0.914017758352083 0.0
0.48799799936719873 0.0 -0.33533835448918464
4 8
-0.33533835448918464 -0.48799799936719873 -0.0
-0.4879979993672006 -0.33533835448918464 -0.0
-0.0 -0.0 0.9140177583520849
4 9
-3.0914948483550635 -1.5214944075169428 1.5214944075169448
-1.5214944075169428 -3.0914948483550635 1.5214944075169428
1.5214944075169428 1.5214944075169428 -3.0914948483550617
4 10
0.12200068241257472 0.13980235290637272 -0.13980235290637272
0.13980235290637272 0.12200068241257472 0.13980235290637272
-0.13980235290637272 0.13980235290637272 0.12200068241257472
4 11
0.12200068241257472 0.13980235290637272 0.13980235290637272
0.13980235290637272 0.12200068241257472 -0.13980235290637272
0.13980235290637272 -0.13980235290637272 0.12200068241257472
4 12
0.12200068241257472 -0.13980235290637272 -0.13980235290637272
-0.13980235290637272 0.12200068241257472 -0.13980235290637272
-0.13980235290637272 -0.13980235290637272 0.12200068241257472
4 13
-3.0914948483550617 -1.5214944075169428 -1.5214944075169428
-1.5214944075169428 -3.0914948483550635 -1.5214944075169448
-1.5214944075169428 -1.5214944075169428 -3.0914948483550617
4 14
-3.0914948483550635 1.5214944075169428 1.5214944075169448
1.5214944075169428 -3.0914948483550635 -1.5214944075169428
1.5214944075169428 -1.5214944075169428 -3.0914948483550635
4 15
-3.0914948483550617 1.5214944075169428 -1.5214944075169428
1.5214944075169428 -3.0914948483550635 1.5214944075169428
-1.521494407516941 1.5214944075169428 -3.0914948483550617
4 16
0.12200068241257472 -0.13980235290637272 0.13980235290637272
-0.13980235290637272 0.12200068241257472 0.13980235290637272
0.13980235290637272 0.13980235290637272 0.12200068241257472
5 1
-0.33533835448918464 -0.48799799936719873 -0.0
-0.4879979993672006 -0.33533835448918464 -0.0
-0.0 -0.0 0.9140177583520849
5 2
-0.33533835448918464 -0.0 0.4879979993672006
-0.0 0.914017758352083 0.0
0.48799799936719873 0.0 -0.33533835448918464
5 3
0.914017758352083 -0.0 0.0
-0.0 -0.33533835448918464 0.4879979993672006
0.0 0.48799799936719873 -0.33533835448918464
5 4
-0.13285328808861133 -0.0 0.0
-0.0 -0.13285328808861133 0.0
0.0 -0.0 -0.13285328808861133
5 5
11.524147946647805 1.8897261349925716e-15 -1.8897261349925716e-15
0.0 11.524147946647807 -0.0
-1.8897261349925716e-15 0.0 11.524147946647807
5 6
0.914017758352083 0.0 0.0
0.0 -0.33533835448918464 -0.4879979993672006
0.0 -0.48799799936719873 -0.33533835448918464
5 7
-0.33533835448918464 -0.0 -0.48799799936719873
-0.0 0.9140177583520849 -0.0
-0.48799799936719873 0.0 -0.33533835448918464
5 8
-0.33533835448918464 0.4879979993672006 -0.0
0.48799799936719873 -0.33533835448918464 0.0
-0.0 -0.0 0.9140177583520849
5 9
0.12200068241257472 -0.13980235290637272 0.13980235290637272
-0.13980235290637272 0.12200068241257472 0.13980235290637272
0.13980235290637272 0.13980235290637272 0.12200068241257472
5 10
-3.0914948483550617 1.5214944075169428 -1.5214944075169428
1.5214944075169428 -3.0914948483550635 1.5214944075169428
-1.521494407516941 1.5214944075169428 -3.0914948483550617
5 11
-3.0914948483550635 1.5214944075169428 1.5214944075169448
1.5214944075169428 -3.0914948483550635 -1.5214944075169428
1.5214944075169428 -1.5214944075169428 -3.0914948483550635
5 12
-3.0914948483550617 -1.5214944075169428 -1.5214944075169428
-1.5214944075169428 -3.0914948483550635 -1.5214944075169448
-1.5214944075169428 -1.5214944075169428 -3.0914948483550617
5 13
0.12200068241257472 -0.13980235290637272 -0.13980235290637272
-0.13980235290637272 0.12200068241257472 -0.13980235290637272
-0.13980235290637272 -0.13980235290637272 0.12200068241257472
5 14
0.12200068241257472 0.13980235290637272 0.13980235290637272
0.13980235290637272 0.12200068241257472 -0.13980235290637272
0.13980235290637272 -0.13980235290637272 0.12200068241257472
5 15
0.12200068241257472 0.13980235290637272 -0.13980235290637272
0.13980235290637272 0.12200068241257472 0.13980235290637272
-0.13980235290637272 0.13980235290637272 0.12200068241257472
5 16
-3.0914948483550635 -1.5214944075169428 1.5214944075169448
-1.5214944075169428 -3.0914948483550635 1.5214944075169428
1.5214944075169428 1.5214944075169428 -3.0914948483550617
6 1
-0.33533835448918464 -0.0 0.4879979993672006
-0.0 0.914017758352083 0.0
0.48799799936719873 0.0 -0.33533835448918464
6 2
-0.33533835448918464 -0.48799799936719873 -0.0
-0.4879979993672006 -0.33533835448918464 -0.0
-0.0 -0.0 0.9140177583520849
6 3
-0.13285328808861133 -0.0 0.0
-0.0 -0.13285328808861133 0.0
0.0 -0.0 -0.13285328808861133
6 4
0.914017758352083 -0.0 0.0
-0.0 -0.33533835448918464 0.4879979993672006
0.0 0.48799799936719873 -0.33533835448918464
6 5
0.914017758352083 0.0 0.0
0.0 -0.33533835448918464 -0.4879979993672006
0.0 -0.48799799936719873 -0.33533835448918464
6 6
11.524147946647805 1.8897261349925716e-15 -1.8897261349925716e-15
0.0 11.524147946647807 -0.0
-1.8897261349925716e-15 0.0 11.524147946647807
6 7
-0.33533835448918464 0.4879979993672006 -0.0
0.48799799936719873 -0.33533835448918464 0.0
-0.0 -0.0 0.9140177583520849
6 8
-0.33533835448918464 -0.0 -0.48799799936719873
-0.0 0.9140177583520849 -0.0
-0.48799799936719873 0.0 -0.33533835448918464
6 9
-3.0914948483550617 1.5214944075169428 -1.5214944075169428
1.5214944075169428 -3.0914948483550635 1.5214944075169428
-1.521494407516941 1.5214944075169428 -3.0914948483550617
6 10
0.12200068241257472 -0.13980235290637272 0.13980235290637272
-0.13980235290637272 0.12200068241257472 0.13980235290637272
0.13980235290637272 0.13980235290637272 0.12200068241257472
6 11
-3.0914948483550617 -1.5214944075169428 -1.5214944075169428
-1.5214944075169428 -3.0914948483550635 -1.5214944075169448
-1.5214944075169428 -1.5214944075169428 -3.0914948483550617
6 12
-3.0914948483550635 1.5214944075169428 1.5214944075169448
1.5214944075169428 -3.0914948483550635 -1.5214944075169428
1.5214944075169428 -1.5214944075169428 -3.0914948483550635
6 13
0.12200068241257472 0.13980235290637272 0.13980235290637272
0.13980235290637272 0.12200068241257472 -0.13980235290637272
0.13980235290637272 -0.13980235290637272 0.12200068241257472
6 14
0.12200068241257472 -0.13980235290637272 -0.13980235290637272
-0.13980235290637272 0.12200068241257472 -0.13980235290637272
-0.13980235290637272 -0.13980235290637272 0.12200068241257472
6 15
-3.0914948483550635 -1.5214944075169428 1.5214944075169448
-1.5214944075169428 -3.0914948483550635 1.5214944075169428
1.5214944075169428 1.5214944075169428 -3.0914948483550617
6 16
0.12200068241257472 0.13980235290637272 -0.13980235290637272
0.13980235290637272 0.12200068241257472 0.13980235290637272
-0.13980235290637272 0.13980235290637272 0.12200068241257472
7 1
0.914017758352083 -0.0 0.0
-0.0 -0.33533835448918464 0.4879979993672006
0.0 0.48799799936719873 -0.33533835448918464
7 2
-0.13285328808861133 -0.0 0.0
-0.0 -0.13285328808861133 0.0
0.0 -0.0 -0.13285328808861133
7 3
-0.33533835448918464 -0.48799799936719873 -0.0
-0.4879979993672006 -0.33533835448918464 -0.0
-0.0 -0.0 0.9140177583520849
7 4
-0.33533835448918464 -0.0 0.4879979993672006
-0.0 0.914017758352083 0.0
0.48799799936719873 0.0 -0.33533835448918464
7 5
-0.33533835448918464 -0.0 -0.48799799936719873
-0.0 0.9140177583520849 -0.0
-0.48799799936719873 0.0 -0.33533835448918464
7 6
-0.33533835448918464 0.4879979993672006 -0.0
0.48799799936719873 -0.33533835448918464 0.0
-0.0 -0.0 0.9140177583520849
7 7
11.524147946647805 1.8897261349925716e-15 -1.8897261349925716e-15
0.0 11.524147946647807 -0.0
-1.8897261349925716e-15 0.0 11.524147946647807
7 8
0.914017758352083 0.0 0.0
0.0 -0.33533835448918464 -0.4879979993672006
0.0 -0.48799799936719873 -0.33533835448918464
7 9
-3.0914948483550635 1.5214944075169428 1.5214944075169448
1.5214944075169428 -3.0914948483550635 -1.5214944075169428
1.5214944075169428 -1.5214944075169428 -3.0914948483550635
7 10
-3.0914948483550617 -1.5214944075169428 -1.5214944075169428
-1.5214944075169428 -3.0914948483550635 -1.5214944075169448
-1.5214944075169428 -1.5214944075169428 -3.0914948483550617
7 11
0.12200068241257472 -0.13980235290637272 0.13980235290637272
-0.13980235290637272 0.12200068241257472 0.13980235290637272
0.13980235290637272 0.13980235290637272 0.12200068241257472
7 12
-3.0914948483550617 1.5214944075169428 -1.5214944075169428
1.5214944075169428 -3.0914948483550635 1.5214944075169428
-1.521494407516941 1.5214944075169428 -3.0914948483550617
7 13
0.12200068241257472 0.13980235290637272 -0.13980235290637272
0.13980235290637272 0.12200068241257472 0.13980235290637272
-0.13980235290637272 0.13980235290637272 0.12200068241257472
7 14
-3.0914948483550635 -1.5214944075169428 1.5214944075169448
-1.5214944075169428 -3.0914948483550635 1.5214944075169428
1.5214944075169428 1.5214944075169428 -3.0914948483550617
7 15
0.12200068241257472 -0.13980235290637272 -0.13980235290637272
-0.13980235290637272 0.12200068241257472 -0.13980235290637272
-0.13980235290637272 -0.13980235290637272 0.12200068241257472
7 16
0.12200068241257472 0.13980235290637272 0.13980235290637272
0.13980235290637272 0.12200068241257472 -0.13980235290637272
0.13980235290637272 -0.13980235290637272 0.12200068241257472
8 1
-0.13285328808861133 -0.0 0.0
-0.0 -0.13285328808861133 0.0
0.0 -0.0 -0.13285328808861133
8 2
0.914017758352083 -0.0 0.0
-0.0 -0.33533835448918464 0.4879979993672006
0.0 0.48799799936719873 -0.33533835448918464
8 3
-0.33533835448918464 -0.0 0.4879979993672006
-0.0 0.914017758352083 0.0
0.48799799936719873 0.0 -0.33533835448918464
8 4
-0.33533835448918464 -0.48799799936719873 -0.0
-0.4879979993672006 -0.33533835448918464 -0.0
-0.0 -0.0 0.9140177583520849
8 5
-0.33533835448918464 0.4879979993672006 -0.0
0.48799799936719873 -0.33533835448918464 0.0
-0.0 -0.0 0.9140177583520849
8 6
-0.33533835448918464 -0.0 -0.48799799936719873
-0.0 0.9140177583520849 -0.0
-0.48799799936719873 0.0 -0.33533835448918464
8 7
0.914017758352083 0.0 0.0
0.0 -0.33533835448918464 -0.4879979993672006
0.0 -0.48799799936719873 -0.33533835448918464
8 8
11.524147946647805 1.8897261349925716e-15 -1.8897261349925716e-15
0.0 11.524147946647807 -0.0
-1.8897261349925716e-15 0.0 11.524147946647807
8 9
-3.0914948483550617 -1.5214944075169428 -1.5214944075169428
-1.5214944075169428 -3.0914948483550635 -1.5214944075169448
-1.5214944075169428 -1.5214944075169428 -3.0914948483550617
8 10
-3.0914948483550635 1.5214944075169428 1.5214944075169448
1.5214944075169428 -3.0914948483550635 -1.5214944075169428
1.5214944075169428 -1.5214944075169428 -3.0914948483550635
8 11
-3.0914948483550617 1.5214944075169428 -1.5214944075169428
1.5214944075169428 -3.0914948483550635 1.5214944075169428
-1.521494407516941 1.5214944075169428 -3.0914948483550617
8 12
0.12200068241257472 -0.13980235290637272 0.13980235290637272
-0.13980235290637272 0.12200068241257472 0.13980235290637272
0.13980235290637272 0.13980235290637272 0.12200068241257472
8 13
-3.0914948483550635 -1.5214944075169428 1.5214944075169448
-1.5214944075169428 -3.0914948483550635 1.5214944075169428
1.5214944075169428 1.5214944075169428 -3.0914948483550617
8 14
0.12200068241257472 0.13980235290637272 -0.13980235290637272
0.13980235290637272 0.12200068241257472 0.13980235290637272
-0.13980235290637272 0.13980235290637272 0.12200068241257472
8 15
0.12200068241257472 0.13980235290637272 0.13980235290637272
0.13980235290637272 0.12200068241257472 -0.13980235290637272
0.13980235290637272 -0.13980235290637272 0.12200068241257472
8 16
0.12200068241257472 -0.13980235290637272 -0.13980235290637272
-0.13980235290637272 0.12200068241257472 -0.13980235290637272
-0.13980235290637272 -0.13980235290637272 0.12200068241257472
9 1
0.12200068241257472 -0.13980235290637272 -0.13980235290637272
-0.13980235290637272 0.12200068241257472 -0.13980235290637272
-0.13980235290637272 -0.13980235290637272 0.12200068241257472
9 2
0.12200068241257472 0.13980235290637272 0.13980235290637272
0.13980235290637272 0.12200068241257661 -0.13980235290637272
0.13980235290637272 -0.13980235290637272 0.12200068241257472
9 3
0.12200068241257472 0.13980235290637272 -0.13980235290637272
0.13980235290637272 0.12200068241257661 0.13980235290637272
-0.13980235290637272 0.13980235290637272 0.12200068241257472
9 4
-3.0914948483550617 -1.5214944075169428 1.5214944075169428
-1.5214944075169428 -3.0914948483550635 1.5214944075169448
1.5214944075169448 1.5214944075169428 -3.0914948483550635
9 5
0.12200068241257472 -0.13980235290637272 0.13980235290637272
-0.13980235290637272 0.12200068241257472 0.13980235290637272
0.13980235290637272 0.13980235290637272 0.12200068241257472
9 6
-3.09149484835506 1.5214944075169428 -1.5214944075169428
1.5214944075169428 -3.0914948483550635 1.5214944075169428
-1.5214944075169428 1.5214944075169428 -3.0914948483550635
9 7
-3.0914948483550617 1.5214944075169428 1.5214944075169428
1.5214944075169428 -3.0914948483550635 -1.5214944075169428
1.5214944075169448 -1.5214944075169428 -3.0914948483550635
9 8
-3.09149484835506 -1.521494407516941 -1.521494407516941
-1.5214944075169428 -3.0914948483550635 -1.5214944075169428
-1.5214944075169428 -1.5214944075169428 -3.0914948483550635
9 9
11.524147946647801 -0.0 -1.8897261349925716e-15
1.8897261349925716e-15 11.524147946647807 -0.0
-1.8897261349925716e-15 -0.0 11.52414794664781
9 10
0.914017758352083 0.0 0.0
0.0 -0.33533835448918464 -0.4879979993672006
0.0 -0.4879979993672006 -0.33533835448918464
9 11
-0.33533835448918464 -0.0 -0.48799799936719873
0.0 0.9140177583520849 -0.0
-0.48799799936719873 -0.0 -0.33533835448918464
9 12
-0.33533835448918464 0.48799799936719873 -0.0
0.4879979993672006 -0.33533835448918464 0.0
-0.0 -0.0 0.9140177583520849
9 13
-0.33533835448918464 -0.48799799936719873 -0.0
-0.4879979993672006 -0.33533835448918464 -0.0
-0.0 -0.0 0.9140177583520849
9 14
-0.33533835448918464 -0.0 0.48799799936719873
-0.0 0.914017758352083 0.0
0.4879979993672006 0.0 -0.33533835448918464
9 15
0.914017758352083 0.0 0.0
-0.0 -0.33533835448918464 0.4879979993672006
0.0 0.4879979993672006 -0.33533835448918464
9 16
-0.13285328808861133 -0.0 0.0
-0.0 -0.13285328808861133 0.0
0.0 0.0 -0.13285328808861133
10 1
0.12200068241257472 0.13980235290637272 0.13980235290637272
0.13980235290637272 0.12200068241257661 -0.13980235290637272
0.13980235290637272 -0.13980235290637272 0.12200068241257661
10 2
0.12200068241257472 -0.13980235290637272 -0.13980235290637272
-0.13980235290637272 0.12200068241257472 -0.13980235290637272
-0.13980235290637272 -0.13980235290637272 0.12200068241257661
10 3
-3.0914948483550635 -1.5214944075169428 1.5214944075169448
-1.5214944075169448 -3.0914948483550635 1.5214944075169448
1.5214944075169448 1.5214944075169448 -3.0914948483550657
10 4
0.12200068241257472 0.13980235290637272 -0.13980235290637272
0.13980235290637272 0.12200068241257661 0.13980235290637272
-0.13980235290637272 0.13980235290637272 0.12200068241257661
10 5
-3.09149484835506 1.521494407516941 -1.521494407516941
1.5214944075169428 -3.0914948483550617 1.5214944075169448
-1.5214944075169428 1.5214944075169428 -3.0914948483550657
10 6
0.12200068241257472 -0.13980235290637272 0.13980235290637272
-0.13980235290637272 0.12200068241257472 0.13980235290637272
0.13980235290637272 0.13980235290637272 0.12200068241257661
10 7
-3.09149484835506 -1.521494407516941 -1.521494407516941
-1.5214944075169428 -3.0914948483550635 -1.5214944075169448
-1.5214944075169428 -1.5214944075169448 -3.0914948483550657
10 8
-3.0914948483550635 1.5214944075169428 1.5214944075169448
1.5214944075169428 -3.0914948483550635 -1.5214944075169428
1.5214944075169448 -1.5214944075169428 -3.0914948483550657
10 9
0.914017758352083 0.0 0.0
0.0 -0.33533835448918464 -0.4879979993672006
0.0 -0.4879979993672006 -0.33533835448918653
10 10
11.524147946647801 1.8897261349925716e-15 -5.669178404977714e-15
1.8897261349925716e-15 11.524147946647807 -0.0
-5.669178404977714e-15 -0.0 11.524147946647815
10 11
-0.33533835448918464 0.48799799936719873 -0.0
0.4879979993672006 -0.33533835448918464 -0.0
-0.0 -0.0 0.9140177583520849
10 12
-0.33533835448918464 -0.0 -0.48799799936719873
-0.0 0.9140177583520849 -0.0
-0.48799799936719873 -0.0 -0.33533835448918464
10 13
-0.33533835448918653 -0.0 0.4879979993672006
-0.0 0.914017758352083 0.0
0.4879979993672006 0.0 -0.33533835448918653
10 14
-0.33533835448918464 -0.48799799936719873 -0.0
-0.4879979993672006 -0.33533835448918464 -0.0
-0.0 -0.0 0.9140177583520849
10 15
-0.13285328808861133 -0.0 0.0
-0.0 -0.13285328808861133 0.0
0.0 0.0 -0.13285328808861133
10 16
0.914017758352083 -0.0 0.0
-0.0 -0.33533835448918464 0.4879979993672006
0.0 0.4879979993672006 -0.33533835448918464
11 1
0.12200068241257472 0.13980235290637272 -0.13980235290637272
0.13980235290637272 0.12200068241257661 0.13980235290637272
-0.13980235290637272 0.13980235290637272 0.12200068241257661
11 2
-3.0914948483550635 -1.5214944075169428 1.5214944075169448
-1.5214944075169448 -3.0914948483550635 1.5214944075169448
1.5214944075169448 1.5214944075169448 -3.0914948483550657
11 3
0.12200068241257472 -0.13980235290637272 -0.13980235290637272
-0.13980235290637272 0.12200068241257472 -0.13980235290637272
-0.13980235290637272 -0.13980235290637272 0.12200068241257661
11 4
0.12200068241257472 0.13980235290637272 0.13980235290637272
0.13980235290637272 0.12200068241257661 -0.13980235290637272
0.13980235290637272 -0.13980235290637272 0.12200068241257661
11 5
-3.0914948483550635 1.5214944075169428 1.5214944075169448
1.5214944075169428 -3.0914948483550635 -1.5214944075169428
1.5214944075169448 -1.5214944075169428 -3.0914948483550657
11 6
-3.09149484835506 -1.521494407516941 -1.521494407516941
-1.5214944075169428 -3.0914948483550635 -1.5214944075169448
-1.5214944075169428 -1.5214944075169448 -3.0914948483550657
11 7
0.12200068241257472 -0.13980235290637272 0.13980235290637272
-0.13980235290637272 0.12200068241257472 0.13980235290637272
0.13980235290637272 0.13980235290637272 0.12200068241257661
11 8
-3.09149484835506 1.521494407516941 -1.521494407516941
1.5214944075169428 -3.0914948483550617 1.5214944075169448
-1.5214944075169428 1.5214944075169428 -3.0914948483550657
11 9
-0.33533835448918464 -0.0 -0.48799799936719873
-0.0 0.9140177583520849 -0.0
-0.48799799936719873 -0.0 -0.33533835448918464
11 10
-0.33533835448918464 0.48799799936719873 -0.0
0.4879979993672006 -0.33533835448918464 -0.0
-0.0 -0.0 0.9140177583520849
11 11
11.524147946647801 1.8897261349925716e-15 -5.669178404977714e-15
1.8897261349925716e-15 11.524147946647807 -0.0
-5.669178404977714e-15 -0.0 11.524147946647815
11 12
0.914017758352083 0.0 0.0
0.0 -0.33533835448918464 -0.4879979993672006
0.0 -0.4879979993672006 -0.33533835448918653
11 13
0.914017758352083 -0.0 0.0
-0.0 -0.33533835448918464 0.4879979993672006
0.0 0.4879979993672006 -0.33533835448918464
11 14
-0.13285328808861133 -0.0 0.0
-0.0 -0.13285328808861133 0.0
0.0 0.0 -0.13285328808861133
11 15
-0.33533835448918464 -0.48799799936719873 -0.0
-0.4879979993672006 -0.33533835448918464 -0.0
-0.0 -0.0 0.9140177583520849
11 16
-0.33533835448918653 -0.0 0.4879979993672006
-0.0 0.914017758352083 0.0
0.4879979993672006 0.0 -0.33533835448918653
12 1
-3.0914948483550635 -1.5214944075169428 1.5214944075169448
-1.5214944075169448 -3.0914948483550635 1.5214944075169448
1.5214944075169448 1.5214944075169448 -3.0914948483550657
12 2
0.12200068241257472 0.13980235290637272 -0.13980235290637272
0.13980235290637272 0.12200068241257661 0.13980235290637272
-0.13980235290637272 0.13980235290637272 0.12200068241257661
12 3
0.12200068241257472 0.13980235290637272 0.13980235290637272
0.13980235290637272 0.12200068241257661 -0.13980235290637272
0.13980235290637272 -0.13980235290637272 0.12200068241257661
12 4
0.12200068241257472 -0.13980235290637272 -0.13980235290637272
-0.13980235290637272 0.12200068241257472 -0.13980235290637272
-0.13980235290637272 -0.13980235290637272 0.12200068241257661
12 5
-3.09149484835506 -1.521494407516941 -1.521494407516941
-1.5214944075169428 -3.0914948483550635 -1.5214944075169448
-1.5214944075169428 -1.5214944075169448 -3.0914948483550657
12 6
-3.0914948483550635 1.5214944075169428 1.5214944075169448
1.5214944075169428 -3.0914948483550635 -1.5214944075169428
1.5214944075169448 -1.5214944075169428 -3.0914948483550657
12 7
-3.09149484835506 1.521494407516941 -1.521494407516941
1.5214944075169428 -3.0914948483550617 1.5214944075169448
-1.5214944075169428 1.5214944075169428 -3.0914948483550657
12 8
0.12200068241257472 -0.13980235290637272 0.13980235290637272
-0.13980235290637272 0.12200068241257472 0.13980235290637272
0.13980235290637272 0.13980235290637272 0.12200068241257661
12 9
-0.33533835448918464 0.48799799936719873 -0.0
0.4879979993672006 -0.33533835448918464 -0.0
-0.0 -0.0 0.9140177583520849
12 10
-0.33533835448918464 -0.0 -0.48799799936719873
-0.0 0.9140177583520849 -0.0
-0.48799799936719873 -0.0 -0.33533835448918464
12 11
0.914017758352083 0.0 0.0
0.0 -0.33533835448918464 -0.4879979993672006
0.0 -0.4879979993672006 -0.33533835448918653
12 12
11.524147946647801 1.8897261349925716e-15 -5.669178404977714e-15
1.8897261349925716e-15 11.524147946647807 -0.0
-5.669178404977714e-15 -0.0 11.524147946647815
12 13
-0.13285328808861133 -0.0 0.0
-0.0 -0.13285328808861133 0.0
0.0 0.0 -0.13285328808861133
12 14
0.914017758352083 -0.0 0.0
-0.0 -0.33533835448918464 0.4879979993672006
0.0 0.4879979993672006 -0.33533835448918464
12 15
-0.33533835448918653 -0.0 0.4879979993672006
-0.0 0.914017758352083 0.0
0.4879979993672006 0.0 -0.33533835448918653
12 16
-0.33533835448918464 -0.48799799936719873 -0.0
-0.4879979993672006 -0.33533835448918464 -0.0
-0.0 -0.0 0.9140177583520849
13 1
0.12200068241257472 -0.13980235290637272 0.13980235290637272
-0.13980235290637272 0.12200068241257472 0.13980235290637272
0.13980235290637272 0.13980235290637272 0.12200068241257661
13 2
-3.09149484835506 1.521494407516941 -1.521494407516941
1.5214944075169428 -3.0914948483550617 1.5214944075169448
-1.5214944075169428 1.5214944075169428 -3.0914948483550657
13 3
-3.0914948483550635 1.5214944075169428 1.5214944075169448
1.5214944075169428 -3.0914948483550635 -1.5214944075169428