                                                                                     
                             WELCOME TO ABACUS                                       
                                                                                     
               'Atomic-orbital Based Ab-initio Computation at UStc'                  
                                                                                     
                     Website: http://abacus.ustc.edu.cn/                             
                                                                                     
    Version: Parallel, v2.0.0
    Processor Number is 8
    Start Time is Wed Oct  9 18:56:24 2019
                                                                                     
 ------------------------------------------------------------------------------------

 READING GENERAL INFORMATION
                           global_out_dir = OUT.Si-6-1.8/
                           global_in_card = INPUT
                               pseudo_dir = ./
                              pseudo_type = auto
                                    DRANK = 1
                                    DSIZE = 8
                                   DCOLOR = 1
                                    GRANK = 1
                                    GSIZE = 1
Open file : INPUTw




 >>>>>>>>>>>>>>>>>>>>>>>>>>>>>>>>>>>>>>>>>>>>>>>>>>>>>>>>>>>>>>>>>>>>>>
 |                                                                    |
 | Reading atom information in unitcell:                              |
 | From the input file and the structure file we know the number of   |
 | different elments in this unitcell, then we list the detail        |
 | information for each element, especially the zeta and polar atomic |
 | orbital number for each element. The total atom number is counted. |
 | We calculate the nearest atom distance for each atom and show the  |
 | Cartesian and Direct coordinates for each atom. We list the file   |
 | address for atomic orbitals and nonlocal projectors. The volume    |
 | and the lattice vectors in real and reciprocal space is also shown.|
 |                                                                    |
 <<<<<<<<<<<<<<<<<<<<<<<<<<<<<<<<<<<<<<<<<<<<<<<<<<<<<<<<<<<<<<<<<<<<<<




 READING UNITCELL INFORMATION
                                    ntype = 1
                 atom label for species 1 = Si
                  lattice constant (Bohr) = 20
              lattice constant (Angstrom) = 10.5835

 READING ATOM TYPE 1
                               atom label = Si
                      start magnetization = FALSE
                      L=0, number of zeta = 1
                      L=1, number of zeta = 1
                      L=2, number of zeta = 1
             number of atom for this type = 2

                        TOTAL ATOM NUMBER = 2

 Output nearest atom not considering periodic boundary condition
  TYPE INDEX       NEAREST(Bohr)   NEAREST(Angstrom)
    Si     1                   0                   0
    Si     2                   0                   0

 CARTESIAN COORDINATES ( UNIT = 20 Bohr ).
         atom                   x                   y                   z                 mag
     tauc_Si1                   0                   0                   0                   0
     tauc_Si2                   0                   0      0.170075419001                   0


                          Volume (Bohr^3) = 8000
                             Volume (A^3) = 1185.47627437

 Lattice vectors: (Cartesian coordinate: in unit of a_0)
                   +1                  +0                  +0
                   +0                  +1                  +0
                   +0                  +0                  +1
 Reciprocal vectors: (Cartesian coordinate: in unit of 2 pi/a_0)
                   +1                  +0                  +0
                   +0                  +1                  +0
                   +0                  -0                  +1




 >>>>>>>>>>>>>>>>>>>>>>>>>>>>>>>>>>>>>>>>>>>>>>>>>>>>>>>>>>>>>>>>>>>>>>
 |                                                                    |
 | Reading pseudopotentials files:                                    |
 | The pseudopotential file is in UPF format. The 'NC' indicates that |
 | the type of pseudopotential is 'norm conserving'. Functional of    |
 | exchange and correlation is decided by 4 given parameters in UPF   |
 | file.  We also read in the 'core correction' if there exists.      |
 | Also we can read the valence electrons number and the maximal      |
 | angular momentum used in this pseudopotential. We also read in the |
 | trail wave function, trail atomic density and local-pseudopotential|
 | on logrithmic grid. The non-local pseudopotential projector is also|
 | read in if there is any.                                           |
 |                                                                    |
 <<<<<<<<<<<<<<<<<<<<<<<<<<<<<<<<<<<<<<<<<<<<<<<<<<<<<<<<<<<<<<<<<<<<<<




                PAO radial cut off (Bohr) = 14

 Read in pseudopotential file is Si_ONCV_PBE-1.0.upf
                     pseudopotential type = NC
                            functional Ex = PBE
                            functional Ec = 
                          functional GCEx = 
                          functional GCEc = 
                 nonlocal core correction = 0
                        valence electrons = 4
                                     lmax = 1
                           number of zeta = 0
                     number of projectors = 4
                           L of projector = 0
                           L of projector = 0
                           L of projector = 1
                           L of projector = 1

 SETUP THE ELECTRONS NUMBER
            electron number of element Si = 4
      total electron number of element Si = 8
                           occupied bands = 4
                                   NBANDS = 8
     initial pseudo atomic orbital number = 0
                                   NLOCAL = 18
 DONE : SETUP UNITCELL Time : 0.0548408031464 (SEC)





 >>>>>>>>>>>>>>>>>>>>>>>>>>>>>>>>>>>>>>>>>>>>>>>>>>>>>>>>>>>>>>>>>>>>>>
 |                                                                    |
 | Setup K-points                                                     |
 | We setup the k-points according to input parameters.               |
 | The reduced k-points are set according to symmetry operations.     |
 | We treat the spin as another set of k-points.                      |
 |                                                                    |
 <<<<<<<<<<<<<<<<<<<<<<<<<<<<<<<<<<<<<<<<<<<<<<<<<<<<<<<<<<<<<<<<<<<<<<





 SETUP K-POINTS
                                    nspin = 1
                   Input type of k points = Monkhorst-Pack(Gamma)
                                   nkstot = 1

  KPOINTS            DIRECT_X            DIRECT_Y            DIRECT_Z              WEIGHT
        1                   0                   0                   0                   1

           k-point number in this process = 1
       minimum distributed K point number = 1

  KPOINTS         CARTESIAN_X         CARTESIAN_Y         CARTESIAN_Z              WEIGHT
        1                   0                   0                   0                   2

  KPOINTS            DIRECT_X            DIRECT_Y            DIRECT_Z              WEIGHT
        1                   0                   0                   0                   2
 DONE : INIT K-POINTS Time : 0.0556955337524 (SEC)





 >>>>>>>>>>>>>>>>>>>>>>>>>>>>>>>>>>>>>>>>>>>>>>>>>>>>>>>>>>>>>>>>>>>>>>
 |                                                                    |
 | Setup plane waves:                                                 |
 | Use the energy cutoff and the lattice vectors to generate the      |
 | dimensions of FFT grid. The number of FFT grid on each processor   |
 | is 'nrxx'. The number of plane wave basis in reciprocal space is   |
 | different for charege/potential and wave functions. We also set    |
 | the 'sticks' for the parallel of FFT.                              |
 |                                                                    |
 <<<<<<<<<<<<<<<<<<<<<<<<<<<<<<<<<<<<<<<<<<<<<<<<<<<<<<<<<<<<<<<<<<<<<<





 SETUP THE PLANE WAVE BASIS
     energy cutoff for wavefunc (unit:Ry) = 100
            [fft grid for wave functions] = 128, 128, 128
          [fft grid for charge/potential] = 128, 128, 128
                      [fft grid division] = 1, 1, 1
      [big fft grid for charge/potential] = 128, 128, 128
                                     nbxx = 262144
                                     nrxx = 262144

 SETUP PLANE WAVES FOR CHARGE/POTENTIAL
                    number of plane waves = 1080751
                         number of sticks = 12745

 SETUP PLANE WAVES FOR WAVE FUNCTIONS
                    number of plane waves = 135043
                         number of sticks = 3181

 PARALLEL PW FOR CHARGE/POTENTIAL
     PROC   COLUMNS(POT)             PW
        1           1592         135094
        2           1592         135094
        3           1593         135095
        4           1594         135094
        5           1594         135094
        6           1594         135094
        7           1593         135093
        8           1593         135093
 --------------- sum -------------------
        8          12745        1080751

 PARALLEL PW FOR WAVE FUNCTIONS
     PROC     COLUMNS(W)             PW
        1            399          16877
        2            404          16880
        3            397          16877
        4            399          16887
        5            396          16882
        6            396          16886
        7            394          16878
        8            396          16876
 --------------- sum -------------------
        8           3181         135043

 SETUP COORDINATES OF PLANE WAVES
              number of total plane waves = 1080751

 SETUP COORDINATES OF PLANE WAVES
                            number of |g| = 3355
                                  max |g| = 4052
                                  min |g| = 0
 DONE : INIT PLANEWAVE Time : 0.660911560059 (SEC)

                                     npwx = 16877

 SETUP NONLOCAL PSEUDOPOTENTIALS IN PLANE WAVE BASIS
 Si non-local projectors:
 projector 1 L=0
 projector 2 L=0
 projector 3 L=1
 projector 4 L=1
      TOTAL NUMBER OF NONLOCAL PROJECTORS = 16
 DONE : LOCAL POTENTIAL Time : 0.732058525085 (SEC)


 Init Non-Local PseudoPotential table : 
 Init Non-Local-Pseudopotential done.
 DONE : NON-LOCAL POTENTIAL Time : 0.759932518005 (SEC)

                                start_pot = atomic
 DONE : INIT POTENTIAL Time : 1.00987 (SEC)


 Make real space PAO into reciprocal space.
       max mesh points in Pseudopotential = 601
     dq(describe PAO in reciprocal space) = 0.01
                                    max q = 1206

 number of pseudo atomic orbitals for Si is 0
 DONE : INIT BASIS Time : 1.19272 (SEC)

 -------------------------------------------
 -------------------------------------------

 PW ALGORITHM --------------- ION=   1  ELEC=   1--------------------------------
  K-point    CG iter num      Time(Sec)
 Energy (eV) & Occupations  for spin=1 K-point=1
      1     -15.749386       1.000000
      2      -8.436116       1.000000
      3      -6.665793       1.000000
      4      -6.595515       1.000000
      5      -5.606778       1.000000
      6      -1.765971       1.000000
      7      -1.803025       1.000000
      8       0.886314       1.000000
        1       8.750000       1.300000

 Density error is 0.318444303417
                          Error Threshold = 0.010000000000

       Energy                       Rydberg                            eV
   E_KohnSham              -15.153344300969             -206.171826249008
     E_Harris              -15.306792926923             -208.259601912250
       E_band               -5.504577491655              -74.893618969055
   E_one_elec              -24.359929559958             -331.433844894057
    E_Hartree              +12.240593316075             +166.541815999333
         E_xc               -4.440745472204              -60.419441789681
      E_Ewald               +0.429356852206               +5.841699665352
      E_demet               -0.000000021013               -0.000000285896
      E_descf               +0.977380583925              +13.297945055941
     E_efield               +0.000000000000               +0.000000000000
      E_Fermi               -0.448415271096               -6.101002757121

 PW ALGORITHM --------------- ION=   1  ELEC=   2--------------------------------
  K-point    CG iter num      Time(Sec)
 Energy (eV) & Occupations  for spin=1 K-point=1
      1     -13.493656       2.000000
      2      -8.034429       2.000000
      3      -5.291623       2.000000
      4      -5.263344       2.000000
      5      -4.845510       0.000000
      6      -1.320545       0.000000
      7      -1.319580       0.000000
      8      -0.026691       0.000000
        1       3.250000       0.590000

 Density error is 0.030826985913
                          Error Threshold = 0.003980553793

       Energy                       Rydberg                            eV
   E_KohnSham              -15.209295485192             -206.933081164285
     E_Harris              -15.218324016701             -207.055920637387
       E_band               -4.714994500120              -64.150791240298
   E_one_elec              -23.550252136616             -320.417618394647
    E_Hartree              +12.280593844309             +167.086051106325
         E_xc               -4.442355236238              -60.441343752971
      E_Ewald               +0.429356852206               +5.841699665352
      E_demet               -0.001303211306               -0.017731099458
      E_descf               +0.074664402452               +1.015861311115
     E_efield               +0.000000000000               +0.000000000000
      E_Fermi               -0.370974370919               -5.047365256466

 PW ALGORITHM --------------- ION=   1  ELEC=   3--------------------------------
  K-point    CG iter num      Time(Sec)
 Energy (eV) & Occupations  for spin=1 K-point=1
      1     -13.342614       2.000000
      2      -8.109108       2.000000
      3      -5.179933       1.988879
      4      -5.159900       1.975228
      5      -4.891648       0.035893
      6      -1.358108       0.000000
      7      -1.346370       0.000000
      8      -0.090170       0.000000
        1       2.750000       0.490000

 Density error is 0.001622901196
                          Error Threshold = 0.000385337324

       Energy                       Rydberg                            eV
   E_KohnSham              -15.215450087825             -207.016818829020
     E_Harris              -15.215856055604             -207.022342304017
       E_band               -4.669043923114              -63.525601566628
   E_one_elec              -23.421596783501             -318.667172514084
    E_Hartree              +12.253025271011             +166.710961423741
         E_xc               -4.437150036107              -60.370523371960
      E_Ewald               +0.429356852206               +5.841699665352
      E_demet               -0.005552258437               -0.075542351513
      E_descf               -0.033533132997               -0.456241680557
     E_efield               +0.000000000000               +0.000000000000
      E_Fermi               -0.368427689607               -5.012715879633

 PW ALGORITHM --------------- ION=   1  ELEC=   4--------------------------------
  K-point    CG iter num      Time(Sec)
 Energy (eV) & Occupations  for spin=1 K-point=1
      1     -13.399549       2.000000
      2      -8.152443       2.000000
      3      -5.212373       1.917808
      4      -5.209048       1.873952
      5      -4.938836       0.208241
      6      -1.388225       0.000000
      7      -1.386297       0.000000
      8      -0.126750       0.000000
        1       3.875000       0.650000

 Density error is 0.001598364092
                          Error Threshold = 0.000020286265

       Energy                       Rydberg                            eV
   E_KohnSham              -15.216075974655             -207.025334456207
     E_Harris              -15.216647019686             -207.033103922448
       E_band               -4.695612071141              -63.887079765100
   E_one_elec              -23.374822484334             -318.030775525457
    E_Hartree              +12.224740646768             +166.326129368246
         E_xc               -4.432545283527              -60.307872498988
      E_Ewald               +0.429356852206               +5.841699665352
      E_demet               -0.005801180523               -0.078929110237
      E_descf               -0.057004525245               -0.775586355123
     E_efield               +0.000000000000               +0.000000000000
      E_Fermi               -0.371674241325               -5.056887481841

 PW ALGORITHM --------------- ION=   1  ELEC=   5--------------------------------
  K-point    CG iter num      Time(Sec)
 Energy (eV) & Occupations  for spin=1 K-point=1
      1     -13.469424       2.000000
      2      -8.174515       2.000000
      3      -5.257339       1.893940
      4      -5.255167       1.886259
      5      -4.969712       0.219801
      6      -1.410441       0.000000
      7      -1.409220       0.000000
      8      -0.144207       0.000000
        1       2.250000       0.430000

 Density error is 0.000520458926
                          Error Threshold = 0.000019979551

       Energy                       Rydberg                            eV
   E_KohnSham              -15.216337311652             -207.028890128469
     E_Harris              -15.216467233601             -207.030657807267
       E_band               -4.722900148436              -64.258353103775
   E_one_elec              -23.406021817145             -318.455264225488
    E_Hartree              +12.193746049525             +165.904426238537
         E_xc               -4.427231779738              -60.235578571115
      E_Ewald               +0.429356852206               +5.841699665352
      E_demet               -0.005197342281               -0.070713469474
      E_descf               -0.000989274220               -0.013459766280
     E_efield               +0.000000000000               +0.000000000000
      E_Fermi               -0.374526945642               -5.095700515274

 PW ALGORITHM --------------- ION=   1  ELEC=   6--------------------------------
  K-point    CG iter num      Time(Sec)
 Energy (eV) & Occupations  for spin=1 K-point=1
      1     -13.542053       2.000000
      2      -8.210394       2.000000
      3      -5.302146       1.907065
      4      -5.301535       1.902589
      5      -5.013540       0.190347
      6      -1.439625       0.000000
      7      -1.439212       0.000000
      8      -0.167920       0.000000
        1       2.750000       0.490000

 Density error is 0.000160015757
                          Error Threshold = 0.000006505737

       Energy                       Rydberg                            eV
   E_KohnSham              -15.216370732413             -207.029344841249
     E_Harris              -15.216440912653             -207.030299692398
       E_band               -4.752298701926              -64.658340944203
   E_one_elec              -23.439486319673             -318.910572140599
    E_Hartree              +12.205622257250             +166.066010334223
         E_xc               -4.429415032854              -60.265283253677
      E_Ewald               +0.429356852206               +5.841699665352
      E_demet               -0.005127029084               -0.069756809351
      E_descf               +0.022678539741               +0.308557362803
     E_efield               +0.000000000000               +0.000000000000
      E_Fermi               -0.377818376437               -5.140482728650

 PW ALGORITHM --------------- ION=   1  ELEC=   7--------------------------------
  K-point    CG iter num      Time(Sec)
 Energy (eV) & Occupations  for spin=1 K-point=1
      1     -13.508100       2.000000
      2      -8.211887       2.000000
      3      -5.279567       1.907116
      4      -5.278079       1.905874
      5      -5.009158       0.187010
      6      -1.436092       0.000000
      7      -1.435152       0.000000
      8      -0.171499       0.000000
        1       2.500000       0.470000

 Density error is 0.000067986673
                          Error Threshold = 0.000002000197

       Energy                       Rydberg                            eV
   E_KohnSham              -15.216412319132             -207.029910657592
     E_Harris              -15.216417493385             -207.029981056917
       E_band               -4.740273772369              -64.494733384168
   E_one_elec              -23.413728738506             -318.560122270031
    E_Hartree              +12.205100066720             +166.058905567577
         E_xc               -4.429415644995              -60.265291582271
      E_Ewald               +0.429356852206               +5.841699665352
      E_demet               -0.005894600766               -0.080200157859
      E_descf               -0.001830253792               -0.024901880359
     E_efield               +0.000000000000               +0.000000000000
      E_Fermi               -0.376755513266               -5.126021733338

 PW ALGORITHM --------------- ION=   1  ELEC=   8--------------------------------
  K-point    CG iter num      Time(Sec)
 Energy (eV) & Occupations  for spin=1 K-point=1
      1     -13.509849       2.000000
      2      -8.210936       2.000000
      3      -5.280904       1.889510
      4      -5.279687       1.886013
      5      -5.008390       0.224477
      6      -1.435906       0.000000
      7      -1.435137       0.000000
      8      -0.171609       0.000000
        1       2.000000       0.390000

 Density error is 0.000040823492
                          Error Threshold = 0.000000849833

       Energy                       Rydberg                            eV
   E_KohnSham              -15.216402221709             -207.029773275107
     E_Harris              -15.216413461826             -207.029926204738
       E_band               -4.740882895829              -64.503020934011
   E_one_elec              -23.415475580187             -318.583889270397
    E_Hartree              +12.207088842125             +166.085964245128
         E_xc               -4.430328190223              -60.277707397058
      E_Ewald               +0.429356852206               +5.841699665352
      E_demet               -0.005799413896               -0.078905074044
      E_descf               -0.001244731736               -0.016935444088
     E_efield               +0.000000000000               +0.000000000000
      E_Fermi               -0.376788401440               -5.126469199895

 PW ALGORITHM --------------- ION=   1  ELEC=   9--------------------------------
  K-point    CG iter num      Time(Sec)
 Energy (eV) & Occupations  for spin=1 K-point=1
      1     -13.506624       2.000000
      2      -8.204235       2.000000
      3      -5.279705       1.891559
      4      -5.279628       1.888748
      5      -5.000792       0.219693
      6      -1.432369       0.000000
      7      -1.432313       0.000000
      8      -0.171802       0.000000
        1       2.250000       0.430000

 Density error is 0.000000404130
                          Error Threshold = 0.000000510294

       Energy                       Rydberg                            eV
   E_KohnSham              -15.216406913533             -207.029837110640
     E_Harris              -15.216407085379             -207.029839448722
       E_band               -4.739420856348              -64.483128866368
   E_one_elec              -23.418953217291             -318.631204950584
    E_Hartree              +12.207857547179             +166.096423013932
         E_xc               -4.430486529873              -60.279861718518
      E_Ewald               +0.429356852206               +5.841699665352
      E_demet               -0.005508359655               -0.074945077943
      E_descf               +0.001326793901               +0.018051957122
     E_efield               +0.000000000000               +0.000000000000
      E_Fermi               -0.376507343020               -5.122645203914

 PW ALGORITHM --------------- ION=   1  ELEC=  10--------------------------------
  K-point    CG iter num      Time(Sec)
 Energy (eV) & Occupations  for spin=1 K-point=1
      1     -13.504839       2.000000
      2      -8.203340       2.000000
      3      -5.278581       1.897430
      4      -5.278517       1.897262
      5      -4.999691       0.205308
      6      -1.431653       0.000000
      7      -1.431607       0.000000
      8      -0.171858       0.000000
        1       4.625000       0.750000

 Density error is 0.000000106952
                          Error Threshold = 0.000000005052

       Energy                       Rydberg                            eV
   E_KohnSham              -15.216407068518             -207.029839219321
     E_Harris              -15.216407066045             -207.029839185677
       E_band               -4.738697952325              -64.473293252556
   E_one_elec              -23.417985696097             -318.618041149415
    E_Hartree              +12.207738013770             +166.094796678480
         E_xc               -4.430451685089              -60.279387630906
      E_Ewald               +0.429356852206               +5.841699665352
      E_demet               -0.005509013049               -0.074953967829
      E_descf               +0.000444459740               +0.006047184997
     E_efield               +0.000000000000               +0.000000000000
      E_Fermi               -0.376425747340               -5.121535037734

 PW ALGORITHM --------------- ION=   1  ELEC=  11--------------------------------
  K-point    CG iter num      Time(Sec)
 Energy (eV) & Occupations  for spin=1 K-point=1
      1     -13.504974       2.000000
      2      -8.203740       2.000000
      3      -5.278641       1.897400
      4      -5.278630       1.897260
      5      -5.000064       0.205340
      6      -1.431848       0.000000
      7      -1.431845       0.000000
      8      -0.171852       0.000000
        1       2.375000       0.450000

 Density error is 0.000000012480
                          Error Threshold = 0.000000001337

       Energy                       Rydberg                            eV
   E_KohnSham              -15.216407076928             -207.029839333751
     E_Harris              -15.216407080273             -207.029839379263
       E_band               -4.738794527171              -64.474607220737
   E_one_elec              -23.417796858089             -318.615471876511
    E_Hartree              +12.208085890770             +166.099529787875
         E_xc               -4.430532133352              -60.280482185684
      E_Ewald               +0.429356852206               +5.841699665352
      E_demet               -0.005520828463               -0.075114724783
      E_descf               +0.000000000000               +0.000000000000
     E_efield               +0.000000000000               +0.000000000000
      E_Fermi               -0.376441787721               -5.121753278318
 charge density convergence is achieved
 final etot is -207.029839333751 eV

 STATE ENERGY(eV) AND OCCUPATIONS. 1/1 kpoint (Cartesian) = 0.00000 0.00000 0.00000 (16877 pws)
 [spin1_state]        1     -13.504974       2.000000
 [spin1_state]        2      -8.203740       2.000000
 [spin1_state]        3      -5.278641       1.897053
 [spin1_state]        4      -5.278630       1.897030
 [spin1_state]        5      -5.000064       0.205917
 [spin1_state]        6      -1.431848       0.000000
 [spin1_state]        7      -1.431845       0.000000
 [spin1_state]        8      -0.171852       0.000000



 --------------------------------------------
 !FINAL_ETOT_IS -207.0298393337511698 eV
 --------------------------------------------



 ><><><><><><><><><><><><><><><><><><><><><><

 Overlap Data For Spillage Minimization

 ><><><><><><><><><><><><><><><><><><><><><><

 File name : INPUTs
                                   smooth = 1
                                    sigma = 0.1000000000000000
                                     ecut = 100.0000000000000000
                                     rcut = 6.0000000000000000
                                tolerence = 0.0000000000010000
                                    kmesh = 1005
                                       dk = 0.0100000000000000
                                    rmesh = 605
                                       dr = 0.0100000000000000
                       number of k points = 1
                          number of bands = 8
                 number of local orbitals = 18
           number of eigenvalues of Jl(x) = 19
 --------------------------------------------------------
 Print the overlap matrixs Q and S for this kpoint
       ik     npw
        1   16877
 --------------------------------------------------------
 OUTPUT THE OVERLAP BETWEEN SPHERICAL BESSEL FUNCTIONS AND BLOCH WAVE FUNCTIONS
 Q = < J_mu, q | Psi_n, k > 

    ik   Type1   Atom1       L
     1      Si       1       0
     1      Si       1       1
     1      Si       1       2
     1      Si       2       0
     1      Si       2       1
     1      Si       2       2
 DONE : jlq3d_overlap Time : 12.3066146373748779 (SEC)

 OUTPUT THE OVERLAP BETWEEN SPHERICAL BESSEL FUNCTIONS
 S = < J_mu,q1 | J_nu,q2 >

    ik   Type1   Atom1      L1   Type2   Atom2      L2
     1      Si       1       0      Si       1       0
     1      Si       1       0      Si       1       1
     1      Si       1       0      Si       1       2
     1      Si       1       1      Si       1       0
     1      Si       1       1      Si       1       1
     1      Si       1       1      Si       1       2
     1      Si       1       2      Si       1       0
     1      Si       1       2      Si       1       1
     1      Si       1       2      Si       1       2
     1      Si       1       0      Si       2       0
     1      Si       1       0      Si       2       1
     1      Si       1       0      Si       2       2
     1      Si       1       1      Si       2       0
     1      Si       1       1      Si       2       1
     1      Si       1       1      Si       2       2
     1      Si       1       2      Si       2       0
     1      Si       1       2      Si       2       1
     1      Si       1       2      Si       2       2
     1      Si       2       0      Si       1       0
     1      Si       2       0      Si       1       1
     1      Si       2       0      Si       1       2
     1      Si       2       1      Si       1       0
     1      Si       2       1      Si       1       1
     1      Si       2       1      Si       1       2
     1      Si       2       2      Si       1       0
     1      Si       2       2      Si       1       1
     1      Si       2       2      Si       1       2
     1      Si       2       0      Si       2       0
     1      Si       2       0      Si       2       1
     1      Si       2       0      Si       2       2
     1      Si       2       1      Si       2       0
     1      Si       2       1      Si       2       1
     1      Si       2       1      Si       2       2
     1      Si       2       2      Si       2       0
     1      Si       2       2      Si       2       1
     1      Si       2       2      Si       2       2
 DONE : Sq_overlap Time : 42.0741195678710938 (SEC)


 ik=0 DONE : BASIS OVERLAP (Q and S) GENERATION. Time : 42.2137265205383301 (SEC)





  |CLASS_NAME---------|NAME---------------|TIME(Sec)-----|CALLS----|AVG------|PER%-------
  A             DC_Driv         divide_frag          0.605         1      0.61      1.43%
  B            PW_Basis              gen_pw           0.61         1      0.61      1.43%
  A             DC_Driv         solve_eachf          41.55         1     41.55     98.43%
  B            Run_Frag        frag_pw_line          41.55         1     41.55     98.43%
  X                 FFT               FFT3D           6.67      1034      0.01     15.81%
  E           potential            v_of_rho           2.09        12      0.17      4.96%
  C            wavefunc             wfcinit           0.18         1      0.18      0.43%
  G           Hamilt_PW            cinitcgg           1.66        12      0.14      3.92%
  H           Hamilt_PW               h_psi           6.11       395      0.02     14.48%
  I           Hamilt_PW          add_vuspsi           0.19       395      0.00      0.44%
  C                Ions         opt_ions_pw          10.21         1     10.21     24.17%
  D           electrons     self_consistent          10.21         1     10.21     24.17%
  E           electrons             c_bands           6.50        11      0.59     15.40%
  F              Hamilt               diago           6.43        11      0.58     15.23%
  G            Diago_CG                diag           4.93        11      0.45     11.67%
  E              Charge             mix_rho           0.57        11      0.05      1.34%
 ----------------------------------------------------------------------------------------

 CLASS_NAME---------|NAME---------------|MEMORY(MB)--------
                                         73.4309
         Charge_Pulay                Rrho        16.0000
         Charge_Pulay               dRrho        14.0000
         Charge_Pulay                drho        14.0000
              Use_FFT              porter         4.0000
             PW_Basis           struc_fac         2.0614
             wavefunc                 evc         2.0602
               Charge                 rho         2.0000
               Charge            rho_save         2.0000
               Charge            rho_core         2.0000
            potential               vltot         2.0000
            potential                  vr         2.0000
            potential                 vrs         2.0000
            potential                vrs1         2.0000
            potential                vnew         2.0000
         Charge_Pulay           rho_save2         2.0000
               Charge                rhog         1.0307
               Charge           rhog_save         1.0307
               Charge           rhog_core         1.0307
 ----------------------------------------------------------

 Start  Time  : Wed Oct  9 18:56:24 2019
 Finish Time  : Wed Oct  9 18:57:06 2019
 Total  Time  : 0 h 0 mins 42 secs 
