                                                                                     
                             WELCOME TO ABACUS                                       
                                                                                     
               'Atomic-orbital Based Ab-initio Computation at UStc'                  
                                                                                     
                     Website: http://abacus.ustc.edu.cn/                             
                                                                                     
    Version: Parallel, in development
    Processor Number is 16
    Start Time is Sun Sep 25 10:09:29 2022
                                                                                     
 ------------------------------------------------------------------------------------

 READING GENERAL INFORMATION
                           global_out_dir = OUT.ABACUS/
                           global_in_card = INPUT
                               pseudo_dir = 
                              orbital_dir = 
                              pseudo_type = auto
                                    DRANK = 1
                                    DSIZE = 16
                                   DCOLOR = 1
                                    GRANK = 1
                                    GSIZE = 1
 The esolver type has been set to : ksdft_pw




 >>>>>>>>>>>>>>>>>>>>>>>>>>>>>>>>>>>>>>>>>>>>>>>>>>>>>>>>>>>>>>>>>>>>>>
 |                                                                    |
 | Reading atom information in unitcell:                              |
 | From the input file and the structure file we know the number of   |
 | different elments in this unitcell, then we list the detail        |
 | information for each element, especially the zeta and polar atomic |
 | orbital number for each element. The total atom number is counted. |
 | We calculate the nearest atom distance for each atom and show the  |
 | Cartesian and Direct coordinates for each atom. We list the file   |
 | address for atomic orbitals. The volume and the lattice vectors    |
 | in real and reciprocal space is also shown.                        |
 |                                                                    |
 <<<<<<<<<<<<<<<<<<<<<<<<<<<<<<<<<<<<<<<<<<<<<<<<<<<<<<<<<<<<<<<<<<<<<<




 READING UNITCELL INFORMATION
                                    ntype = 1
                 atom label for species 1 = Pt
                  lattice constant (Bohr) = 1.88973
              lattice constant (Angstrom) = 1

 READING ATOM TYPE 1
                               atom label = Pt
                      L=0, number of zeta = 1
                      L=1, number of zeta = 1
                      L=2, number of zeta = 1
             number of atom for this type = 27

                        TOTAL ATOM NUMBER = 27

 CARTESIAN COORDINATES ( UNIT = 1.88973 Bohr ).
         atom                   x                   y                   z                 mag                  vx                  vy                  vz
     tauc_Pt1                   0                   0       3.28805224601                   0                   0                   0                   0
     tauc_Pt2         1.405985941      0.811746361996       1.64352612299                   0                   0                   0                   0
     tauc_Pt3  -3.43847172957e-12       1.62349272299                   0                   0                   0                   0                   0
     tauc_Pt4         2.811971882                   0       3.28705224602                   0                   0                   0                   0
     tauc_Pt5         4.218042047      0.811746361996       1.64352612299                   0                   0                   0                   0
     tauc_Pt6         2.811971882       1.62349272299                   0                   0                   0                   0                   0
     tauc_Pt7       5.62402823901                   0       3.28705224602                   0                   0                   0                   0
     tauc_Pt8       7.03001418101      0.811746361996       1.64352612299                   0                   0                   0                   0
     tauc_Pt9       5.62402798801       1.62349272299                   0                   0                   0                   0                   0
    tauc_Pt10      -1.40598594101         2.435239085       3.28705224602                   0                   0                   0                   0
    tauc_Pt11   7.95585819446e-13         3.246985446       1.64352612299                   0                   0                   0                   0
    tauc_Pt12        -1.406028053         4.058804748                   0                   0                   0                   0                   0
    tauc_Pt13       1.40598594099         2.435239085       3.28705224602                   0                   0                   0                   0
    tauc_Pt14       2.81205610599         3.246985446       1.64352612299                   0                   0                   0                   0
    tauc_Pt15          1.40594383         4.058804748                   0                   0                   0                   0                   0
    tauc_Pt16         4.218042298         2.435239085       3.28705224602                   0                   0                   0                   0
    tauc_Pt17       5.62402823899         3.246985446       1.64352612299                   0                   0                   0                   0
    tauc_Pt18       4.21799993501         4.058804748                   0                   0                   0                   0                   0
    tauc_Pt19        5.6239857503         4.870551327       3.28705224602                   0                   0                   0                   0
    tauc_Pt20        -1.406028053       5.68229747101       1.64352612299                   0                   0                   0                   0
    tauc_Pt21         -2.81201412          6.49404405                   0                   0                   0                   0                   0
    tauc_Pt22  -4.22369999113e-05         4.870551327       3.28705224602                   0                   0                   0                   0
    tauc_Pt23         1.406028053       5.68229747101       1.64352612299                   0                   0                   0                   0
    tauc_Pt24  -4.22370033495e-05          6.49404405                   0                   0                   0                   0                   0
    tauc_Pt25       2.81201411999         4.870551327       3.28705224602                   0                   0                   0                   0
    tauc_Pt26       4.21800018699       5.68229747101       1.64352612299                   0                   0                   0                   0
    tauc_Pt27       2.81201386799          6.49404405                   0                   0                   0                   0                   0


                          Volume (Bohr^3) = 10477.6263259
                             Volume (A^3) = 1552.62217762

 Lattice vectors: (Cartesian coordinate: in unit of a_0)
        +8.4359998703                  +0                  +0
        -4.2179999352        +7.305790194                  +0
                   +0                  +0      +25.1919994354
 Reciprocal vectors: (Cartesian coordinate: in unit of 2 pi/a_0)
      +0.118539594046    +0.0684388665331                  -0
                   +0     +0.136877733065                  -0
                   +0                  -0    +0.0396951422043




 >>>>>>>>>>>>>>>>>>>>>>>>>>>>>>>>>>>>>>>>>>>>>>>>>>>>>>>>>>>>>>>>>>>>>>
 |                                                                    |
 | Reading pseudopotentials files:                                    |
 | The pseudopotential file is in UPF format. The 'NC' indicates that |
 | the type of pseudopotential is 'norm conserving'. Functional of    |
 | exchange and correlation is decided by 4 given parameters in UPF   |
 | file.  We also read in the 'core correction' if there exists.      |
 | Also we can read the valence electrons number and the maximal      |
 | angular momentum used in this pseudopotential. We also read in the |
 | trail wave function, trail atomic density and local-pseudopotential|
 | on logrithmic grid. The non-local pseudopotential projector is also|
 | read in if there is any.                                           |
 |                                                                    |
 <<<<<<<<<<<<<<<<<<<<<<<<<<<<<<<<<<<<<<<<<<<<<<<<<<<<<<<<<<<<<<<<<<<<<<




                PAO radial cut off (Bohr) = 15

 Read in pseudopotential file is Pt_ONCV_PBE-1.0.upf
                     pseudopotential type = NC
          exchange-correlation functional = PBE
                 nonlocal core correction = 0
                        valence electrons = 18
                                     lmax = 3
                           number of zeta = 0
                     number of projectors = 8
                           L of projector = 0
                           L of projector = 0
                           L of projector = 1
                           L of projector = 1
                           L of projector = 2
                           L of projector = 2
                           L of projector = 3
                           L of projector = 3
     initial pseudo atomic orbital number = 0
                                   NLOCAL = 243

%%%%%%%%%%%%%%%%%%%%%%%%%%%%%%%%%%%%%%%%%%%%%%%%%%%%%%%%%%%%%%%%%%%%%%%
 Warning: number valence electrons > 10 for Pt: [Xe] 4f14 5d9 6s1
 Please make sure the pseudopential file is what you need
%%%%%%%%%%%%%%%%%%%%%%%%%%%%%%%%%%%%%%%%%%%%%%%%%%%%%%%%%%%%%%%%%%%%%%%
                  




 >>>>>>>>>>>>>>>>>>>>>>>>>>>>>>>>>>>>>>>>>>>>>>>>>>>>>>>>>>>>>>>>>>>>>>
 |                                                                    |
 | Setup plane waves of charge/potential:                             |
 | Use the energy cutoff and the lattice vectors to generate the      |
 | dimensions of FFT grid. The number of FFT grid on each processor   |
 | is 'nrxx'. The number of plane wave basis in reciprocal space is   |
 | different for charege/potential and wave functions. We also set    |
 | the 'sticks' for the parallel of FFT. The number of plane waves    |
 | is 'npw' in each processor.                                        |
 <<<<<<<<<<<<<<<<<<<<<<<<<<<<<<<<<<<<<<<<<<<<<<<<<<<<<<<<<<<<<<<<<<<<<<





 SETUP THE PLANE WAVE BASIS
 energy cutoff for charge/potential (unit:Ry) = 240
          [fft grid for charge/potential] = 80, 80, 240
                      [fft grid division] = 1, 1, 1
      [big fft grid for charge/potential] = 80, 80, 240
                                     nbxx = 96000
                                     nrxx = 96000

 SETUP PLANE WAVES FOR CHARGE/POTENTIAL
                    number of plane waves = 657685
                         number of sticks = 4195

 PARALLEL PW FOR CHARGE/POTENTIAL
     PROC   COLUMNS(POT)             PW
        1            262          41106
        2            262          41106
        3            263          41111
        4            263          41111
        5            263          41111
        6            262          41108
        7            262          41104
        8            262          41104
        9            262          41102
       10            262          41102
       11            262          41102
       12            262          41104
       13            262          41104
       14            262          41104
       15            262          41104
       16            262          41102
 --------------- sum -------------------
       16           4195         657685
                            number of |g| = 15452
                                  max |g| = 21.7092295846
                                  min |g| = 0.0749420552356

 SETUP THE ELECTRONS NUMBER
            electron number of element Pt = 18
      total electron number of element Pt = 486
                           occupied bands = 243
                                   NBANDS = 291
 DONE : SETUP UNITCELL Time : 0.0743018522524 (SEC)





 >>>>>>>>>>>>>>>>>>>>>>>>>>>>>>>>>>>>>>>>>>>>>>>>>>>>>>>>>>>>>>>>>>>>>>
 |                                                                    |
 | Setup K-points                                                     |
 | We setup the k-points according to input parameters.               |
 | The reduced k-points are set according to symmetry operations.     |
 | We treat the spin as another set of k-points.                      |
 |                                                                    |
 <<<<<<<<<<<<<<<<<<<<<<<<<<<<<<<<<<<<<<<<<<<<<<<<<<<<<<<<<<<<<<<<<<<<<<





 SETUP K-POINTS
                                    nspin = 1
                   Input type of k points = Monkhorst-Pack(Gamma)
                                   nkstot = 1
                               nkstot_ibz = 1
      IBZ             DirectX             DirectY             DirectZ              Weight    ibz2bz
        1                   0                   0                   0                   1         0
                               nkstot now = 1

  KPOINTS            DIRECT_X            DIRECT_Y            DIRECT_Z              WEIGHT
        1                   0                   0                   0                   1

           k-point number in this process = 1
       minimum distributed K point number = 1

  KPOINTS         CARTESIAN_X         CARTESIAN_Y         CARTESIAN_Z              WEIGHT
        1                   0                   0                   0                   2

  KPOINTS            DIRECT_X            DIRECT_Y            DIRECT_Z              WEIGHT
        1                   0                   0                   0                   2
 DONE : INIT K-POINTS Time : 0.0746556551216 (SEC)





 >>>>>>>>>>>>>>>>>>>>>>>>>>>>>>>>>>>>>>>>>>>>>>>>>>>>>>>>>>>>>>>>>>>>>>
 |                                                                    |
 | Setup plane waves of wave functions:                               |
 | Use the energy cutoff and the lattice vectors to generate the      |
 | dimensions of FFT grid. The number of FFT grid on each processor   |
 | is 'nrxx'. The number of plane wave basis in reciprocal space is   |
 | different for charege/potential and wave functions. We also set    |
 | the 'sticks' for the parallel of FFT. The number of plane wave of  |
 | each k-point is 'npwk[ik]' in each processor                       |
 <<<<<<<<<<<<<<<<<<<<<<<<<<<<<<<<<<<<<<<<<<<<<<<<<<<<<<<<<<<<<<<<<<<<<<





 SETUP PLANE WAVES FOR WAVE FUNCTIONS
     energy cutoff for wavefunc (unit:Ry) = 60
            [fft grid for wave functions] = 80, 80, 240
                    number of plane waves = 82245
                         number of sticks = 1045

 PARALLEL PW FOR WAVE FUNCTIONS
     PROC   COLUMNS(POT)             PW
        1             65           5139
        2             65           5139
        3             65           5139
        4             65           5139
        5             65           5139
        6             65           5139
        7             65           5139
        8             65           5143
        9             65           5143
       10             65           5143
       11             65           5139
       12             65           5139
       13             65           5139
       14             68           5142
       15             66           5142
       16             66           5142
 --------------- sum -------------------
       16           1045          82245
 DONE : INIT PLANEWAVE Time : 0.0863599286121 (SEC)

 DONE : INIT CHARGE Time : 0.130318656847 (SEC)

                                     npwx = 5139

 SETUP NONLOCAL PSEUDOPOTENTIALS IN PLANE WAVE BASIS
 Pt non-local projectors:
 projector 1 L=0
 projector 2 L=0
 projector 3 L=1
 projector 4 L=1
 projector 5 L=2
 projector 6 L=2
 projector 7 L=3
 projector 8 L=3
      TOTAL NUMBER OF NONLOCAL PROJECTORS = 864
 DONE : LOCAL POTENTIAL Time : 0.505767220465 (SEC)


 Init Non-Local PseudoPotential table : 
 Init Non-Local-Pseudopotential done.
 DONE : NON-LOCAL POTENTIAL Time : 0.530415521948 (SEC)

                                 init_chg = atomic


 Adding external electric field: 
         Computed dipole along efield_dir = 2
                   Elec. dipole (Ry a.u.) = -7.90155
                     Ion dipole (Ry a.u.) = -7.90172
                   Total dipole (Ry a.u.) = -0.000165965
                 Potential amplitute (Ry) = 0.0142217
                      Total length (Bohr) = 42.8454
 DONE : INIT POTENTIAL Time : 0.789318 (SEC)


 Make real space PAO into reciprocal space.
       max mesh points in Pseudopotential = 601
     dq(describe PAO in reciprocal space) = 0.01
                                    max q = 934

 number of pseudo atomic orbitals for Pt is 0
 DONE : INIT BASIS Time : 0.790871 (SEC)


 -------------------------------------------
 SELF-CONSISTENT
 -------------------------------------------

 PW ALGORITHM --------------- ION=   1  ELEC=   1--------------------------------
 Notice: Threshold on eigenvalues was too large.
 hsover_error=4.86 > DRHO=1.15086
 Origin diag_ethr = 0.01
 New    diag_ethr = 0.000236803


 Adding external electric field: 
         Computed dipole along efield_dir = 2
                   Elec. dipole (Ry a.u.) = -7.90177
                     Ion dipole (Ry a.u.) = -7.90172
                   Total dipole (Ry a.u.) = 5.63872e-05
                 Potential amplitute (Ry) = -0.00483186
                      Total length (Bohr) = 42.8454

 Density error is 1.85554604212
                          Error Threshold = 0.000236803199276

       Energy                       Rydberg                            eV
   E_KohnSham                -6545.89401604                -89061.4571222
     E_Harris                -6546.87138603                -89074.7549232
      E_Fermi              +0.0939811505094                +1.27867915152

 PW ALGORITHM --------------- ION=   1  ELEC=   2--------------------------------


 Adding external electric field: 
         Computed dipole along efield_dir = 2
                   Elec. dipole (Ry a.u.) = -7.89988969728
                     Ion dipole (Ry a.u.) = -7.90171640116
                   Total dipole (Ry a.u.) = -0.00182670387465
                 Potential amplitute (Ry) = 0.156531637593
                      Total length (Bohr) = 42.8453784341

 Density error is 7.75144843787
                          Error Threshold = 0.000381799597143

       Energy                       Rydberg                            eV
   E_KohnSham                -6544.42153976                -89041.4230547
     E_Harris                -6547.29913308                -89080.5747204
      E_Fermi               +0.299304152148                +4.07224190427

 PW ALGORITHM --------------- ION=   1  ELEC=   3--------------------------------


 Adding external electric field: 
         Computed dipole along efield_dir = 2
                   Elec. dipole (Ry a.u.) = -7.9063217099
                     Ion dipole (Ry a.u.) = -7.90171640116
                   Total dipole (Ry a.u.) = 0.00460530874278
                 Potential amplitute (Ry) = -0.394632391781
                      Total length (Bohr) = 42.8453784341

 Density error is 13.8860025374
                          Error Threshold = 0.000381799597143

       Energy                       Rydberg                            eV
   E_KohnSham                -6544.55446474                -89043.2315918
     E_Harris                -6547.72933839                -89086.4279639
      E_Fermi              +0.0515340496444               +0.701156716179

 PW ALGORITHM --------------- ION=   1  ELEC=   4--------------------------------


 Adding external electric field: 
         Computed dipole along efield_dir = 2
                   Elec. dipole (Ry a.u.) = -7.90085125123
                     Ion dipole (Ry a.u.) = -7.90171640116
                   Total dipole (Ry a.u.) = -0.000865149927353
                 Potential amplitute (Ry) = 0.0741353520793
                      Total length (Bohr) = 42.8453784341

 Density error is 97.473686306
                          Error Threshold = 0.000381799597143

       Energy                       Rydberg                            eV
   E_KohnSham                -6542.94820837                -89021.3773528
     E_Harris                -6550.92652325                -89129.9278956
      E_Fermi               +0.324852915435                +4.41985066182

 PW ALGORITHM --------------- ION=   1  ELEC=   5--------------------------------


 Adding external electric field: 
         Computed dipole along efield_dir = 2
                   Elec. dipole (Ry a.u.) = -7.90196021343
                     Ion dipole (Ry a.u.) = -7.90171640116
                   Total dipole (Ry a.u.) = 0.000243812266777
                 Potential amplitute (Ry) = -0.0208924576738
                      Total length (Bohr) = 42.8453784341

 Density error is 1.80229704304
                          Error Threshold = 0.000381799597143

       Energy                       Rydberg                            eV
   E_KohnSham                -6546.49552727                -89069.6411024
     E_Harris                -6546.77629391                -89073.4611285
      E_Fermi              +0.0756786264414                +1.02966053642

 PW ALGORITHM --------------- ION=   1  ELEC=   6--------------------------------


 Adding external electric field: 
         Computed dipole along efield_dir = 2
                   Elec. dipole (Ry a.u.) = -7.9016690919
                     Ion dipole (Ry a.u.) = -7.90171640116
                   Total dipole (Ry a.u.) = -4.73092617481e-05
                 Potential amplitute (Ry) = 0.00405396644607
                      Total length (Bohr) = 42.8453784341

 Density error is 3.58887097733
                          Error Threshold = 0.000370843012972

       Energy                       Rydberg                            eV
   E_KohnSham                -6546.55941917                -89070.5103963
     E_Harris                -6546.78499989                -89073.5795795
      E_Fermi               +0.152732150583                +2.07802751572

 PW ALGORITHM --------------- ION=   1  ELEC=   7--------------------------------


 Adding external electric field: 
         Computed dipole along efield_dir = 2
                   Elec. dipole (Ry a.u.) = -7.90144035273
                     Ion dipole (Ry a.u.) = -7.90171640116
                   Total dipole (Ry a.u.) = -0.000276048429138
                 Potential amplitute (Ry) = 0.0236547988251
                      Total length (Bohr) = 42.8453784341

 Density error is 1.74721918094
                          Error Threshold = 0.000370843012972

       Energy                       Rydberg                            eV
   E_KohnSham                -6546.59468217                 -89070.990174
     E_Harris                 -6546.6720431                -89072.0427234
      E_Fermi               +0.146542888268                +1.99381828182

 PW ALGORITHM --------------- ION=   1  ELEC=   8--------------------------------


 Adding external electric field: 
         Computed dipole along efield_dir = 2
                   Elec. dipole (Ry a.u.) = -7.90108266263
                     Ion dipole (Ry a.u.) = -7.90171640116
                   Total dipole (Ry a.u.) = -0.000633738531506
                 Potential amplitute (Ry) = 0.0543055344213
                      Total length (Bohr) = 42.8453784341

 Density error is 0.641197681798
                          Error Threshold = 0.000359510119535

       Energy                       Rydberg                            eV
   E_KohnSham                 -6546.5664605                -89070.6061986
     E_Harris                -6546.62723778                -89071.4331158
      E_Fermi               +0.144750739618                +1.96943484852

 PW ALGORITHM --------------- ION=   1  ELEC=   9--------------------------------


 Adding external electric field: 
         Computed dipole along efield_dir = 2
                   Elec. dipole (Ry a.u.) = -7.90117409598
                     Ion dipole (Ry a.u.) = -7.90171640116
                   Total dipole (Ry a.u.) = -0.00054230518279
                 Potential amplitute (Ry) = 0.0464705415668
                      Total length (Bohr) = 42.8453784341

 Density error is 0.151656066614
                          Error Threshold = 0.000131933679382

       Energy                       Rydberg                            eV
   E_KohnSham                -6546.59114141                -89070.9419995
     E_Harris                -6546.60428877                -89071.1208785
      E_Fermi               +0.147347787177                 +2.0047694933

 PW ALGORITHM --------------- ION=   1  ELEC=  10--------------------------------


 Adding external electric field: 
         Computed dipole along efield_dir = 2
                   Elec. dipole (Ry a.u.) = -7.90121427503
                     Ion dipole (Ry a.u.) = -7.90171640116
                   Total dipole (Ry a.u.) = -0.000502126127385
                 Potential amplitute (Ry) = 0.0430275678989
                      Total length (Bohr) = 42.8453784341

 Density error is 0.0494666733984
                          Error Threshold = 3.12049519781e-05

       Energy                       Rydberg                            eV
   E_KohnSham                -6546.58795719                -89070.8986759
     E_Harris                -6546.59662187                 -89071.016565
      E_Fermi               +0.152576258351                 +2.0759064931

 PW ALGORITHM --------------- ION=   1  ELEC=  11--------------------------------


 Adding external electric field: 
         Computed dipole along efield_dir = 2
                   Elec. dipole (Ry a.u.) = -7.90123231353
                     Ion dipole (Ry a.u.) = -7.90171640116
                   Total dipole (Ry a.u.) = -0.000484087624482
                 Potential amplitute (Ry) = 0.0414818349324
                      Total length (Bohr) = 42.8453784341

 Density error is 0.0500380954975
                          Error Threshold = 1.01783278598e-05

       Energy                       Rydberg                            eV
   E_KohnSham                -6546.58702278                -89070.8859627
     E_Harris                -6546.59745514                -89071.0279023
      E_Fermi               +0.159813451159                +2.17437355281

 PW ALGORITHM --------------- ION=   1  ELEC=  12--------------------------------


 Adding external electric field: 
         Computed dipole along efield_dir = 2
                   Elec. dipole (Ry a.u.) = -7.90115135511
                     Ion dipole (Ry a.u.) = -7.90171640116
                   Total dipole (Ry a.u.) = -0.00056504605341
                 Potential amplitute (Ry) = 0.0484192239821
                      Total length (Bohr) = 42.8453784341

 Density error is 0.0726996861852
                          Error Threshold = 1.01783278598e-05

       Energy                       Rydberg                            eV
   E_KohnSham                -6546.58841047                -89070.9048432
     E_Harris                  -6546.599449                -89071.0550301
      E_Fermi               +0.156699177946                +2.13200169199

 PW ALGORITHM --------------- ION=   1  ELEC=  13--------------------------------


 Adding external electric field: 
         Computed dipole along efield_dir = 2
                   Elec. dipole (Ry a.u.) = -7.90119867016
                     Ion dipole (Ry a.u.) = -7.90171640116
                   Total dipole (Ry a.u.) = -0.000517731002599
                 Potential amplitute (Ry) = 0.0443647614668
                      Total length (Bohr) = 42.8453784341

 Density error is 0.0364766158567
                          Error Threshold = 1.01783278598e-05

       Energy                       Rydberg                            eV
   E_KohnSham                -6546.59373849                -89070.9773346
     E_Harris                 -6546.5953101                -89070.9987174
      E_Fermi               +0.151989038089                +2.06791695155

 PW ALGORITHM --------------- ION=   1  ELEC=  14--------------------------------


 Adding external electric field: 
         Computed dipole along efield_dir = 2
                   Elec. dipole (Ry a.u.) = -7.90136637277
                     Ion dipole (Ry a.u.) = -7.90171640116
                   Total dipole (Ry a.u.) = -0.00035002838696
                 Potential amplitute (Ry) = 0.029994197404
                      Total length (Bohr) = 42.8453784341

 Density error is 0.00870252180753
                          Error Threshold = 7.50547651373e-06

       Energy                       Rydberg                            eV
   E_KohnSham                -6546.59200596                -89070.9537623
     E_Harris                -6546.59434351                -89070.9855663
      E_Fermi               +0.153154972705                +2.08378030582

 PW ALGORITHM --------------- ION=   1  ELEC=  15--------------------------------


 Adding external electric field: 
         Computed dipole along efield_dir = 2
                   Elec. dipole (Ry a.u.) = -7.90122646209
                     Ion dipole (Ry a.u.) = -7.90171640116
                   Total dipole (Ry a.u.) = -0.000489939067758
                 Potential amplitute (Ry) = 0.0419832495354
                      Total length (Bohr) = 42.8453784341

 Density error is 0.0882080879395
                          Error Threshold = 1.79064234723e-06

       Energy                       Rydberg                            eV
   E_KohnSham                -6546.59038933                -89070.9317669
     E_Harris                  -6546.597137                -89071.0235737
      E_Fermi               +0.160721785853                +2.18673208033

 PW ALGORITHM --------------- ION=   1  ELEC=  16--------------------------------


 Adding external electric field: 
         Computed dipole along efield_dir = 2
                   Elec. dipole (Ry a.u.) = -7.90123892816
                     Ion dipole (Ry a.u.) = -7.90171640116
                   Total dipole (Ry a.u.) = -0.000477472999917
                 Potential amplitute (Ry) = 0.040915022747
                      Total length (Bohr) = 42.8453784341

 Density error is 0.00135172009591
                          Error Threshold = 1.79064234723e-06

       Energy                       Rydberg                            eV
   E_KohnSham                  -6546.593795                -89070.9781034
     E_Harris                -6546.59408658                -89070.9820706
      E_Fermi               +0.155727821646                +2.11878571151

 PW ALGORITHM --------------- ION=   1  ELEC=  17--------------------------------


 Adding external electric field: 
         Computed dipole along efield_dir = 2
                   Elec. dipole (Ry a.u.) = -7.9012543169
                     Ion dipole (Ry a.u.) = -7.90171640116
                   Total dipole (Ry a.u.) = -0.000462084262916
                 Potential amplitute (Ry) = 0.0395963502262
                      Total length (Bohr) = 42.8453784341

 Density error is 0.00173503637326
                          Error Threshold = 2.78131706978e-07

       Energy                       Rydberg                            eV
   E_KohnSham                -6546.59381435                -89070.9783668
     E_Harris                -6546.59416288                -89070.9831087
      E_Fermi                +0.15669391085                +2.13193002947

 PW ALGORITHM --------------- ION=   1  ELEC=  18--------------------------------


 Adding external electric field: 
         Computed dipole along efield_dir = 2
                   Elec. dipole (Ry a.u.) = -7.90124334547
                     Ion dipole (Ry a.u.) = -7.90171640116
                   Total dipole (Ry a.u.) = -0.000473055692933
                 Potential amplitute (Ry) = 0.0405365003683
                      Total length (Bohr) = 42.8453784341

 Density error is 0.00123081530907
                          Error Threshold = 2.78131706978e-07

       Energy                       Rydberg                            eV
   E_KohnSham                -6546.59393991                -89070.9800751
     E_Harris                -6546.59407371                -89070.9818955
      E_Fermi               +0.156789856185                +2.13323543272

 PW ALGORITHM --------------- ION=   1  ELEC=  19--------------------------------


 Adding external electric field: 
         Computed dipole along efield_dir = 2
                   Elec. dipole (Ry a.u.) = -7.90124270949
                     Ion dipole (Ry a.u.) = -7.90171640116
                   Total dipole (Ry a.u.) = -0.000473691667541
                 Potential amplitute (Ry) = 0.0405909975137
                      Total length (Bohr) = 42.8453784341

 Density error is 6.78257491552e-05
                          Error Threshold = 2.5325417882e-07

       Energy                       Rydberg                            eV
   E_KohnSham                -6546.59400511                -89070.9809621
     E_Harris                -6546.59401706                -89070.9811247
      E_Fermi               +0.156297948974                +2.12654269176

 PW ALGORITHM --------------- ION=   1  ELEC=  20--------------------------------


 Adding external electric field: 
         Computed dipole along efield_dir = 2
                   Elec. dipole (Ry a.u.) = -7.90124140846
                     Ion dipole (Ry a.u.) = -7.90171640116
                   Total dipole (Ry a.u.) = -0.000474992695496
                 Potential amplitute (Ry) = 0.0407024835839
                      Total length (Bohr) = 42.8453784341

 Density error is 2.97443585651e-05
                          Error Threshold = 1.3955915464e-08

       Energy                       Rydberg                            eV
   E_KohnSham                -6546.59400941                -89070.9810207
     E_Harris                -6546.59401479                -89070.9810938
      E_Fermi               +0.156566462706                +2.13019600851

 PW ALGORITHM --------------- ION=   1  ELEC=  21--------------------------------


 Adding external electric field: 
         Computed dipole along efield_dir = 2
                   Elec. dipole (Ry a.u.) = -7.90124364547
                     Ion dipole (Ry a.u.) = -7.90171640116
                   Total dipole (Ry a.u.) = -0.000472755691858
                 Potential amplitute (Ry) = 0.040510793049
                      Total length (Bohr) = 42.8453784341

 Density error is 7.92692665802e-06
                          Error Threshold = 6.12023838788e-09

       Energy                       Rydberg                            eV
   E_KohnSham                -6546.59401137                -89070.9810474
     E_Harris                -6546.59401322                -89070.9810724
      E_Fermi               +0.156431499228                +2.12835973619

 PW ALGORITHM --------------- ION=   1  ELEC=  22--------------------------------


 Adding external electric field: 
         Computed dipole along efield_dir = 2
                   Elec. dipole (Ry a.u.) = -7.9012426231
                     Ion dipole (Ry a.u.) = -7.90171640116
                   Total dipole (Ry a.u.) = -0.000473778061482
                 Potential amplitute (Ry) = 0.040598400676
                      Total length (Bohr) = 42.8453784341

 Density error is 3.81911830352e-05
                          Error Threshold = 1.6310548679e-09

       Energy                       Rydberg                            eV
   E_KohnSham                -6546.59401199                -89070.9810557
     E_Harris                -6546.59401438                -89070.9810882
      E_Fermi               +0.156477691725                +2.12898821735

 PW ALGORITHM --------------- ION=   1  ELEC=  23--------------------------------


 Adding external electric field: 
         Computed dipole along efield_dir = 2
                   Elec. dipole (Ry a.u.) = -7.90123918521
                     Ion dipole (Ry a.u.) = -7.90171640116
                   Total dipole (Ry a.u.) = -0.000477215947938
                 Potential amplitute (Ry) = 0.0408929957684
                      Total length (Bohr) = 42.8453784341

 Density error is 1.37536918098e-05
                          Error Threshold = 1.6310548679e-09

       Energy                       Rydberg                            eV
   E_KohnSham                -6546.59401114                -89070.9810442
     E_Harris                -6546.59401329                -89070.9810734
      E_Fermi               +0.156454811947                +2.12867692199

 PW ALGORITHM --------------- ION=   1  ELEC=  24--------------------------------


 Adding external electric field: 
         Computed dipole along efield_dir = 2
                   Elec. dipole (Ry a.u.) = -7.90124143352
                     Ion dipole (Ry a.u.) = -7.90171640116
                   Total dipole (Ry a.u.) = -0.00047496764228
                 Potential amplitute (Ry) = 0.0407003367548
                      Total length (Bohr) = 42.8453784341

 Density error is 2.208606612e-05
                          Error Threshold = 1.6310548679e-09

       Energy                       Rydberg                            eV
   E_KohnSham                -6546.59401167                -89070.9810514
     E_Harris                 -6546.5940136                -89070.9810776
      E_Fermi               +0.156361758717                +2.12741086785

 PW ALGORITHM --------------- ION=   1  ELEC=  25--------------------------------


 Adding external electric field: 
         Computed dipole along efield_dir = 2
                   Elec. dipole (Ry a.u.) = -7.90124025507
                     Ion dipole (Ry a.u.) = -7.90171640116
                   Total dipole (Ry a.u.) = -0.000476146091281
                 Potential amplitute (Ry) = 0.0408013189417
                      Total length (Bohr) = 42.8453784341

 Density error is 8.40137754419e-07
                          Error Threshold = 1.6310548679e-09

       Energy                       Rydberg                            eV
   E_KohnSham                -6546.59401263                -89070.9810644
     E_Harris                 -6546.5940128                -89070.9810668
      E_Fermi               +0.156433922672                +2.12839270884

 PW ALGORITHM --------------- ION=   1  ELEC=  26--------------------------------


 Adding external electric field: 
         Computed dipole along efield_dir = 2
                   Elec. dipole (Ry a.u.) = -7.90124092405
                     Ion dipole (Ry a.u.) = -7.90171640116
                   Total dipole (Ry a.u.) = -0.000475477111663
                 Potential amplitute (Ry) = 0.0407439935719
                      Total length (Bohr) = 42.8453784341

 Density error is 3.28250346705e-06
                          Error Threshold = 1.72867850704e-10

       Energy                       Rydberg                            eV
   E_KohnSham                -6546.59401263                -89070.9810645
     E_Harris                -6546.59401291                -89070.9810682
      E_Fermi               +0.156388114092                +2.12776945112

 PW ALGORITHM --------------- ION=   1  ELEC=  27--------------------------------


 Adding external electric field: 
         Computed dipole along efield_dir = 2
                   Elec. dipole (Ry a.u.) = -7.901242553
                     Ion dipole (Ry a.u.) = -7.90171640116
                   Total dipole (Ry a.u.) = -0.000473848156019
                 Potential amplitute (Ry) = 0.0406044071298
                      Total length (Bohr) = 42.8453784341

 Density error is 8.99830012864e-08
                          Error Threshold = 1.72867850704e-10

       Energy                       Rydberg                            eV
   E_KohnSham                -6546.59401268                -89070.9810652
     E_Harris                -6546.59401277                -89070.9810664
       E_band                -1028.77947819                -13997.2628889
   E_one_elec                -70988.7133299                -965850.994976
    E_Hartree                +35397.5519375                +481608.401602
         E_xc                -634.356374811                -8630.86126006
      E_Ewald                +29678.9985233                 +403803.49085
      E_entropy(-TS)       -0.0749559760553                 -1.0198283735
      E_descf                            +0                            +0
     E_efield            +0.000187211029487             +0.00254713672947
        E_exx                            +0                            +0
      E_Fermi               +0.156411275822                +2.12808458263

 charge density convergence is achieved
 final etot is -89070.9810652 eV

 STATE ENERGY(eV) AND OCCUPATIONS    NSPIN == 1
 1/1 kpoint (Cartesian) = 0 0 0 (5139 pws)
       1       -97.3213        2.00000
       2       -97.2954        2.00000
       3       -97.2954        2.00000
       4       -97.2953        2.00000
       5       -97.2953        2.00000
       6       -97.2952        2.00000
       7       -97.2952        2.00000
       8       -97.2822        2.00000
       9       -97.2822        2.00000
      10       -96.2427        2.00000
      11       -96.2288        2.00000
      12       -96.2287        2.00000
      13       -96.2287        2.00000
      14       -96.2286        2.00000
      15       -96.2286        2.00000
      16       -96.2280        2.00000
      17       -96.2240        2.00000
      18       -96.2226        2.00000
      19       -96.2225        2.00000
      20       -96.2224        2.00000
      21       -96.2224        2.00000
      22       -96.2223        2.00000
      23       -96.2220        2.00000
      24       -96.2218        2.00000
      25       -96.2214        2.00000
      26       -96.2214        2.00000
      27       -96.2208        2.00000
      28       -52.2718        2.00000
      29       -52.1938        2.00000
      30       -52.1937        2.00000
      31       -52.1936        2.00000
      32       -52.1936        2.00000
      33       -52.1935        2.00000
      34       -52.1934        2.00000
      35       -52.1502        2.00000
      36       -52.1502        2.00000
      37       -51.8728        2.00000
      38       -51.8727        2.00000
      39       -51.8727        2.00000
      40       -51.8727        2.00000
      41       -51.8726        2.00000
      42       -51.8722        2.00000
      43       -51.8417        2.00000
      44       -51.8416        2.00000
      45       -51.8416        2.00000
      46       -51.8415        2.00000
      47       -51.5358        2.00000
      48       -51.5357        2.00000
      49       -51.5357        2.00000
      50       -51.5356        2.00000
      51       -51.5355        2.00000
      52       -51.5354        2.00000
      53       -51.4284        2.00000
      54       -51.4284        2.00000
      55       -50.6681        2.00000
      56       -50.6105        2.00000
      57       -50.6104        2.00000
      58       -50.6104        2.00000
      59       -50.6104        2.00000
      60       -50.6104        2.00000
      61       -50.6100        2.00000
      62       -50.5477        2.00000
      63       -50.5475        2.00000
      64       -50.5473        2.00000
      65       -50.5473        2.00000
      66       -50.5128        2.00000
      67       -50.5128        2.00000
      68       -50.5128        2.00000
      69       -50.5128        2.00000
      70       -50.5124        2.00000
      71       -50.5124        2.00000
      72       -50.4872        2.00000
      73       -50.4872        2.00000
      74       -50.3341        2.00000
      75       -50.3340        2.00000
      76       -50.3340        2.00000
      77       -50.3340        2.00000
      78       -50.3340        2.00000
      79       -50.3339        2.00000
      80       -50.3209        2.00000
      81       -50.3208        2.00000
      82       -50.3208        2.00000
      83       -50.3207        2.00000
      84       -50.3205        2.00000
      85       -50.3205        2.00000
      86       -50.3014        2.00000
      87       -50.2997        2.00000
      88       -50.2997        2.00000
      89       -50.2995        2.00000
      90       -50.2995        2.00000
      91       -50.2603        2.00000
      92       -50.2603        2.00000
      93       -50.2412        2.00000
      94       -50.2412        2.00000
      95       -50.2411        2.00000
      96       -50.2411        2.00000
      97       -50.2410        2.00000
      98       -50.2410        2.00000
      99       -50.2208        2.00000
     100       -50.2208        2.00000
     101       -50.2022        2.00000
     102       -50.2021        2.00000
     103       -50.2021        2.00000
     104       -50.2020        2.00000
     105       -50.2019        2.00000
     106       -50.2019        2.00000
     107       -50.1884        2.00000
     108       -50.1884        2.00000
     109       -8.89840        2.00000
     110       -6.84812        2.00000
     111       -6.84415        2.00000
     112       -6.84411        2.00000
     113       -6.84405        2.00000
     114       -6.84372        2.00000
     115       -6.84370        2.00000
     116       -6.84356        2.00000
     117       -6.14516        2.00000
     118       -6.14512        2.00000
     119       -6.14508        2.00000
     120       -6.14484        2.00000
     121       -6.14464        2.00000
     122       -6.14461        2.00000
     123       -5.60904        2.00000
     124       -5.60900        2.00000
     125       -5.60890        2.00000
     126       -5.60873        2.00000
     127       -5.60863        2.00000
     128       -5.60860        2.00000
     129       -5.59619        2.00000
     130       -5.50009        2.00000
     131       -5.50004        2.00000
     132       -5.49963        2.00000
     133       -5.49962        2.00000
     134       -5.34309        2.00000
     135       -5.34309        2.00000
     136       -4.74730        2.00000
     137       -4.74727        2.00000
     138       -4.73006        2.00000
     139       -4.72984        2.00000
     140       -4.72984        2.00000
     141       -4.72964        2.00000
     142       -4.48197        2.00000
     143       -4.48189        2.00000
     144       -4.48184        2.00000
     145       -4.48182        2.00000
     146       -4.48095        2.00000
     147       -4.48089        2.00000
     148       -4.32249        2.00000
     149       -4.32247        2.00000
     150       -4.32246        2.00000
     151       -4.32204        2.00000
     152       -4.32203        2.00000
     153       -4.32200        2.00000
     154       -3.83299        2.00000
     155       -3.83297        2.00000
     156       -3.46278        2.00000
     157       -3.46275        2.00000
     158       -3.46270        2.00000
     159       -3.46264        2.00000
     160       -3.46263        2.00000
     161       -3.46226        2.00000
     162       -1.95939        2.00000
     163       -1.95939        2.00000
     164       -1.63717        2.00000
     165       -1.63712        2.00000
     166       -1.63709        2.00000
     167       -1.63682        2.00000
     168       -1.63634        2.00000
     169       -1.63625        2.00000
     170       -1.63123        2.00000
     171       -1.63123        2.00000
     172       -1.43015        2.00000
     173       -1.43015        2.00000
     174       -1.35668        2.00000
     175       -1.35638        2.00000
     176       -1.35637        2.00000
     177       -1.35607        2.00000
     178       -1.35601        2.00000
     179       -1.35598        2.00000
     180       -1.30816        2.00000
     181       -1.30812        2.00000
     182       -1.30713        2.00000
     183       -1.30713        2.00000
     184       -1.30306        2.00000
     185       -1.30306        2.00000
     186       -1.06049        2.00000
     187      -0.956680        2.00000
     188      -0.956473        2.00000
     189      -0.956424        2.00000
     190      -0.956407        2.00000
     191      -0.956044        2.00000
     192      -0.956031        2.00000
     193      -0.425778        2.00000
     194      -0.425734        2.00000
     195      -0.425719        2.00000
     196      -0.425561        2.00000
     197      -0.425558        2.00000
     198      -0.425353        2.00000
     199       0.196247        2.00000
     200       0.196257        2.00000
     201       0.198121        2.00000
     202       0.198188        2.00000
     203       0.198217        2.00000
     204       0.198267        2.00000
     205       0.198645        2.00000
     206       0.198672        2.00000
     207       0.480646        2.00000
     208       0.490302        2.00000
     209       0.490451        2.00000
     210       0.490481        2.00000
     211       0.491005        2.00000
     212       0.491046        2.00000
     213       0.491060        2.00000
     214       0.950215        2.00000
     215       0.950243        2.00000
     216       0.950319        2.00000
     217       0.950435        2.00000
     218       0.950921        2.00000
     219       0.950963        2.00000
     220        1.22736        2.00000
     221        1.22736        2.00000
     222        1.22738        2.00000
     223        1.22760        2.00000
     224        1.37368        1.99991
     225        1.37372        1.99991
     226        1.57189        1.99615
     227        1.57208        1.99614
     228        1.57210        1.99614
     229        1.57226        1.99613
     230        1.57233        1.99613
     231        1.57248        1.99612
     232        1.60460        1.99348
     233        1.73653        1.95814
     234        1.73654        1.95814
     235        1.73714        1.95783
     236        1.73724        1.95777
     237        1.85399        1.84570
     238        1.85400        1.84569
     239        1.94530        1.65787
     240        1.94531        1.65784
     241        1.94543        1.65752
     242        1.94545        1.65746
     243        1.94547        1.65743
     244        1.94548        1.65740
     245        2.45060      0.0937112
     246        2.45062      0.0936875
     247        2.45080      0.0935003
     248        2.45088      0.0934278
     249        2.45088      0.0934212
     250        2.45094      0.0933633
     251        3.86140        0.00000
     252        3.86145        0.00000
     253        4.07680        0.00000
     254        4.07686        0.00000
     255        4.07760        0.00000
     256        4.07766        0.00000
     257        4.07771        0.00000
     258        4.07778        0.00000
     259        4.55353        0.00000
     260        6.11755        0.00000
     261        6.11797        0.00000
     262        6.11800        0.00000
     263        6.11808        0.00000
     264        6.11816        0.00000
     265        6.11819        0.00000
     266        6.95747        0.00000
     267        6.95748        0.00000
     268        6.95784        0.00000
     269        6.95790        0.00000
     270        7.25552        0.00000
     271        7.40124        0.00000
     272        7.40124        0.00000
     273        7.59794        0.00000
     274        7.89353        0.00000
     275        8.70219        0.00000
     276        9.02741        0.00000
     277        9.02803        0.00000
     278        9.02803        0.00000
     279        9.02805        0.00000
     280        9.02812        0.00000
     281        9.02814        0.00000
     282        9.36430        0.00000
     283        9.54352        0.00000
     284        9.54352        0.00000
     285        9.54993        0.00000
     286        9.55008        0.00000
     287        9.57967        0.00000
     288        9.57967        0.00000
     289        10.0853        0.00000
     290        10.0853        0.00000
     291        10.0853        0.00000




 ><><><><><><><><><><><><><><><><><><><><><><

    TOTAL-FORCE (eV/Angstrom)

 ><><><><><><><><><><><><><><><><><><><><><><

     atom              x              y              z
      Pt1    -0.01017755    -0.00814579   +11.68604254
      Pt2    -0.02024159    -0.01974934    +0.01846090
      Pt3    -0.01002124    +0.00140703   -11.73620609
      Pt4    +0.00681019    -0.00998176   +11.72658872
      Pt5    +0.01116558    -0.00919589    +0.01013606
      Pt6    +0.00440275    -0.00391368   -11.73616956
      Pt7    +0.00416969    -0.00458816   +11.72588392
      Pt8    +0.00758353    -0.01296445    +0.02421407
      Pt9    +0.00605617    +0.00356356   -11.72997487
     Pt10    -0.00576314    +0.00208224   +11.72492883
     Pt11    -0.01307208    +0.01336711    +0.00521338
     Pt12    -0.00487253    +0.00745015   -11.72819627
     Pt13    -0.00385260    +0.00831923   +11.73179438
     Pt14    +0.00382234    +0.01680330    +0.00963151
     Pt15    -0.00446261    +0.01199066   -11.73022581
     Pt16    +0.01053509    +0.00430973   +11.72882055
     Pt17    +0.00563298    +0.01195827    +0.00490692
     Pt18    +0.01239542    +0.01178375   -11.72759842
     Pt19    -0.00018559    -0.00420521   +11.71693421
     Pt20    -0.00107503    -0.01182177    -0.00157343
     Pt21    +0.00057671    -0.01784065   -11.73346890
     Pt22    +0.00071285    +0.00299049   +11.72057773
     Pt23    -0.00205707    +0.00398206    +0.00895789
     Pt24    -0.00015290    -0.01167614   -11.72999418
     Pt25    +0.00009405    +0.00788461   +11.72256746
     Pt26    +0.00173545    +0.01140790    +0.01707425
     Pt27    +0.00024111    -0.00521726   -11.72932577


 --------------------------------------------
 !FINAL_ETOT_IS -89070.9810651691223029 eV
 --------------------------------------------






  |CLASS_NAME---------|NAME---------------|TIME(Sec)-----|CALLS----|AVG------|PER%-------
                                      total      810.00674        17     47.65    100.00%
                 Driver         driver_line      809.99563         1    810.00    100.00%
             ppcell_vnl                init        0.24155         1      0.24      0.03%
              Potential            init_pot        0.25851         1      0.26      0.03%
               PW_Basis          recip2real        0.43537       146      0.00      0.05%
               PW_Basis    gathers_scatterp        0.29473       146      0.00      0.04%
                 Charge          atomic_rho        0.12596         1      0.13      0.02%
              Potential            v_of_rho        1.98765        28      0.07      0.25%
          XC_Functional                v_xc        1.73768        29      0.06      0.21%
               PW_Basis          real2recip        0.64561       232      0.00      0.08%
               PW_Basis    gatherp_scatters        0.40720       232      0.00      0.05%
           H_Hartree_pw           v_hartree        0.17881        28      0.01      0.02%
                 Efield          add_efield        0.10875        28      0.00      0.01%
          ESolver_KS_PW                 Run      808.01322         1    808.01     99.75%
              HSolverPW               solve      805.53502        28     28.77     99.45%
            pp_cell_vnl              getvnl        0.69355        29      0.02      0.09%
                 WF_igk              get_sk        0.10368       810      0.00      0.01%
        DiagoIterAssist      diagH_subspace       36.63058        27      1.36      4.52%
             OperatorPW                hPsi      625.91675     26507      0.02     77.27%
               Operator          EkineticPW        0.62093     26507      0.00      0.08%
               Operator              VeffPW      109.20613     26507      0.00     13.48%
             PW_Basis_K          recip2real       62.31184     41349      0.00      7.69%
             PW_Basis_K    gathers_scatterp       27.72174     41349      0.00      3.42%
             PW_Basis_K          real2recip       39.25209     34337      0.00      4.85%
             PW_Basis_K    gatherp_scatters       21.74214     34337      0.00      2.68%
               Operator          NonlocalPW      515.39932     26507      0.02     63.63%
               Nonlocal     add_nonlocal_pp      248.95776     26507      0.01     30.74%
        DiagoIterAssist        diagH_LAPACK        0.98673        27      0.04      0.12%
                DiagoCG           diag_once      753.58966        28     26.91     93.03%
            ElecStatePW            psiToRho       10.86418        28      0.39      1.34%
                 Charge             rho_mpi        1.56471        28      0.06      0.19%
                 Charge             mix_rho        0.27213        26      0.01      0.03%
                 Forces        cal_force_nl        0.87484         1      0.87      0.11%
 ----------------------------------------------------------------------------------------

 CLASS_NAME---------|NAME---------------|MEMORY(MB)--------
                                         48.0537
             wavefunc                 psi        22.8187
         Charge_Pulay                Rrho         5.8594
         Charge_Pulay               dRrho         5.1270
         Charge_Pulay                drho         5.1270
 ----------------------------------------------------------

 Start  Time  : Sun Sep 25 10:09:29 2022
 Finish Time  : Sun Sep 25 10:22:59 2022
 Total  Time  : 0 h 13 mins 30 secs 
