<PP_INFO>
Generated using ld1 code
Author: P. Giannozzi    Generation date: 1994
Info: Ca LDA 4s2 4p0 VonBarth-Car, l=2 local, core correction
    1        The Pseudo was generated with a Scalar-Relativistic Calculation
  0.00000000000E+00    Local Potential cutoff radius
nl pn  l   occ               Rcut            Rcut US             E pseu
4S  0  0  2.00      3.09000000000      0.00000000000      0.00000000000
4P  0  1  0.00      3.09000000000      0.00000000000      0.00000000000
</PP_INFO>


<PP_HEADER>
   0                   Version Number
  Ca                   Element
   NC                  Norm - Conserving pseudopotential
    T                  Nonlinear Core Correction
 SLA  PZ   NOGX NOGC   PZ   Exchange-Correlation functional
    2.00000000000      Z valence
    0.00000000000      Total energy
  0.0000000  0.0000000 Suggested cutoff for wfc and rho
    1                  Max angular momentum component
  179                  Number of points in mesh
    2    1             Number of Wavefunctions, Number of Projectors
 Wavefunctions         nl  l   occ
                       4S  0  2.00
                       4P  1  0.00
</PP_HEADER>


<PP_MESH>
  <PP_R>
  9.15781944437E-04  9.74844805430E-04  1.03771689368E-03  1.10464388325E-03
  1.17588729280E-03  1.25172550750E-03  1.33245486682E-03  1.41839082249E-03
  1.50986917112E-03  1.60724736634E-03  1.71090591558E-03  1.82124986687E-03
  1.93871039159E-03  2.06374646929E-03  2.19684668117E-03  2.33853111920E-03
  2.48935341839E-03  2.64990292017E-03  2.82080697519E-03  3.00273339477E-03
  3.19639306034E-03  3.40254270125E-03  3.62198785171E-03  3.85558599842E-03
  4.10424993119E-03  4.36895130977E-03  4.65072446053E-03  4.95067041819E-03
  5.26996122809E-03  5.60984452602E-03  5.97164841334E-03  6.35678664660E-03
  6.76676416183E-03  7.20318295507E-03  7.66774834225E-03  8.16227562270E-03
  8.68869717252E-03  9.24906999537E-03  9.84558376021E-03  1.04805693576E-02
  1.11565080074E-02  1.18760409548E-02  1.26419797902E-02  1.34573174365E-02
  1.43252398430E-02  1.52491384356E-02  1.62326233679E-02  1.72795376288E-02
  1.83939720586E-02  1.95802813338E-02  2.08431009839E-02  2.21873655041E-02
  2.36183276371E-02  2.51415788985E-02  2.67630714259E-02  2.84891412365E-02
  3.03265329856E-02  3.22824263214E-02  3.43644639395E-02  3.65807814473E-02
  3.89400391536E-02  4.14514559090E-02  4.41248451292E-02  4.69706531407E-02
  5.00000000000E-02  5.32247229459E-02  5.66574226533E-02  6.03115124710E-02
  6.42012708344E-02  6.83418970587E-02  7.27495707309E-02  7.74415149317E-02
  8.24360635350E-02  8.77527328480E-02  9.34122978716E-02  9.94368734791E-02
  1.05850000831E-01  1.12676739361E-01  1.19943764698E-01  1.27679472903E-01
  1.35914091423E-01  1.44679797209E-01  1.54010842446E-01  1.63943688397E-01
  1.74517147873E-01  1.85772536897E-01  1.97753836146E-01  2.10507862807E-01
  2.24084453517E-01  2.38536659098E-01  2.53920951859E-01  2.70297446257E-01
  2.87730133800E-01  3.06287133094E-01  3.26040956017E-01  3.47068791060E-01
  3.69452804947E-01  3.93280463697E-01  4.18644874406E-01  4.45645149060E-01
  4.74386791818E-01  5.04982111274E-01  5.37550659304E-01  5.72219698217E-01
  6.09124698035E-01  6.48409865848E-01  6.90228709303E-01  7.34744636439E-01
  7.82131594209E-01  8.32574748181E-01  8.86271206073E-01  9.43430787963E-01
  1.00427684616E+00  1.06904713796E+00  1.13799475468E+00  1.21138911063E+00
  1.28951699586E+00  1.37268369677E+00  1.46121418906E+00  1.55545440755E+00
  1.65577259793E+00  1.76256075573E+00  1.87623615798E+00  1.99724299379E+00
  2.12605410000E+00  2.26317280881E+00  2.40913491455E+00  2.56451076733E+00
  2.72990750166E+00  2.90597140887E+00  3.09339046252E+00  3.29289700662E+00
  3.50527061733E+00  3.73134114916E+00  3.97199197761E+00  4.22816345104E+00
  4.50085656503E+00  4.79113687385E+00  5.10013865413E+00  5.42906933704E+00
  5.77921422636E+00  6.15194152086E+00  6.54870766054E+00  6.97106301772E+00
  7.42065795513E+00  7.89924927476E+00  8.40870708259E+00  8.95102209608E+00
  9.52831342293E+00  1.01428368415E+01  1.07969936155E+01  1.14933398767E+01
  1.22345966132E+01  1.30236603019E+01  1.38636142262E+01  1.47577405243E+01
  1.57095330143E+01  1.67227108459E+01  1.78012330335E+01  1.89493139261E+01
  2.01714396746E+01  2.14723857620E+01  2.28572356634E+01  2.43314007099E+01
  2.59006412334E+01  2.75710890754E+01  2.93492715471E+01  3.12421369351E+01
  3.32570816522E+01  3.54019791386E+01  3.76852106277E+01  4.01156978964E+01
  4.27029381263E+01  4.54570410150E+01  4.83887682792E+01  5.15095757071E+01
  5.48316579214E+01  5.83679960306E+01  6.21324083527E+01
  </PP_R>
  <PP_RAB>
  5.72363715273E-05  6.09278003394E-05  6.48573058553E-05  6.90402427033E-05
  7.34929558000E-05  7.82328442186E-05  8.32784291761E-05  8.86494264054E-05
  9.43668231947E-05  1.00452960396E-04  1.06931619724E-04  1.13828116679E-04
  1.21169399474E-04  1.28984154331E-04  1.37302917573E-04  1.46158194950E-04
  1.55584588650E-04  1.65618932510E-04  1.76300435949E-04  1.87670837173E-04
  1.99774566271E-04  2.12658918828E-04  2.26374240732E-04  2.40974124901E-04
  2.56515620700E-04  2.73059456861E-04  2.90670278783E-04  3.09416901137E-04
  3.29372576756E-04  3.50615282876E-04  3.73228025833E-04  3.97299165413E-04
  4.22922760114E-04  4.50198934692E-04  4.79234271390E-04  5.10142226419E-04
  5.43043573283E-04  5.78066874710E-04  6.15348985013E-04  6.55035584847E-04
  6.97281750464E-04  7.42252559673E-04  7.90123736890E-04  8.41082339779E-04
  8.95327490188E-04  9.53071152222E-04  1.01453896049E-03  1.07997110180E-03
  1.14962325366E-03  1.22376758336E-03  1.30269381150E-03  1.38671034400E-03
  1.47614547732E-03  1.57134868116E-03  1.67269196412E-03  1.78057132728E-03
  1.89540831160E-03  2.01765164509E-03  2.14777899622E-03  2.28629884046E-03
  2.43375244710E-03  2.59071599431E-03  2.75780282058E-03  2.93566582129E-03
  3.12500000000E-03  3.32654518412E-03  3.54108891583E-03  3.76946952944E-03
  4.01257942715E-03  4.27136856617E-03  4.54684817068E-03  4.84009468323E-03
  5.15225397094E-03  5.48454580300E-03  5.83826861698E-03  6.21480459244E-03
  6.61562505191E-03  7.04229621004E-03  7.49648529365E-03  7.97996705645E-03
  8.49463071393E-03  9.04248732554E-03  9.62567765287E-03  1.02464805248E-02
  1.09073217421E-02  1.16107835561E-02  1.23596147591E-02  1.31567414254E-02
  1.40052783448E-02  1.49085411936E-02  1.58700594912E-02  1.68935903911E-02
  1.79831333625E-02  1.91429458184E-02  2.03775597510E-02  2.16917994412E-02
  2.30908003092E-02  2.45800289811E-02  2.61653046504E-02  2.78528218162E-02
  2.96491744886E-02  3.15613819546E-02  3.35969162065E-02  3.57637311385E-02
  3.80702936272E-02  4.05256166155E-02  4.31392943315E-02  4.59215397775E-02
  4.88832246381E-02  5.20359217613E-02  5.53919503796E-02  5.89644242477E-02
  6.27673028850E-02  6.68154461223E-02  7.11246721673E-02  7.57118194144E-02
  8.05948122412E-02  8.57927310483E-02  9.13258868164E-02  9.72159004718E-02
  1.03485787371E-01  1.10160047233E-01  1.17264759874E-01  1.24827687112E-01
  1.32878381250E-01  1.41448300551E-01  1.50570932160E-01  1.60281922958E-01
  1.70619218854E-01  1.81623213055E-01  1.93336903907E-01  2.05806062914E-01
  2.19079413583E-01  2.33208821823E-01  2.48249498601E-01  2.64260215690E-01
  2.81303535314E-01  2.99446054616E-01  3.18758665883E-01  3.39316833565E-01
  3.61200889147E-01  3.84496345054E-01  4.09294228784E-01  4.35691438607E-01
  4.63791122196E-01  4.93703079672E-01  5.25544192662E-01  5.59438881005E-01
  5.95519588933E-01  6.33927302596E-01  6.74812100971E-01  7.18333742294E-01
  7.64662288326E-01  8.13978768866E-01  8.66475889135E-01  9.22358782770E-01
  9.81845813393E-01  1.04516942787E+00  1.11257706460E+00  1.18433212038E+00
  1.26071497966E+00  1.34202411013E+00  1.42857722897E+00  1.52071254437E+00
  1.61879007709E+00  1.72319306721E+00  1.83432947169E+00  1.95263355845E+00
  2.07856760326E+00  2.21262369616E+00  2.35532566423E+00  2.50723111852E+00
  2.66893363289E+00  2.84106506344E+00  3.02429801745E+00  3.21934848169E+00
  3.42697862009E+00  3.64799975191E+00  3.88327552205E+00
  </PP_RAB>
</PP_MESH>


<PP_NLCC>
  4.66970004602E-02  4.66970005215E-02  4.66970005910E-02  4.66970006696E-02
  4.66970007588E-02  4.66970008598E-02  4.66970009743E-02  4.66970011041E-02
  4.66970012511E-02  4.66970014176E-02  4.66970016064E-02  4.66970018202E-02
  4.66970020626E-02  4.66970023372E-02  4.66970026484E-02  4.66970030010E-02
  4.66970034005E-02  4.66970038533E-02  4.66970043663E-02  4.66970049475E-02
  4.66970056062E-02  4.66970063525E-02  4.66970071982E-02  4.66970081565E-02
  4.66970092422E-02  4.66970104725E-02  4.66970118665E-02  4.66970134459E-02
  4.66970152356E-02  4.66970172633E-02  4.66970195607E-02  4.66970221638E-02
  4.66970251130E-02  4.66970284543E-02  4.66970322399E-02  4.66970365286E-02
  4.66970413873E-02  4.66970468914E-02  4.66970531266E-02  4.66970601896E-02
  4.66970681900E-02  4.66970772517E-02  4.66970875149E-02  4.66970991382E-02
  4.66971123008E-02  4.66971272054E-02  4.66971440809E-02  4.66971631858E-02
  4.66971848119E-02  4.66972092886E-02  4.66972369873E-02  4.66972683263E-02
  4.66973037769E-02  4.66973438691E-02  4.66973891986E-02  4.66974404342E-02
  4.66974983255E-02  4.66975637115E-02  4.66976375295E-02  4.66977208243E-02
  4.66978147581E-02  4.66979206192E-02  4.66980398311E-02  4.66981739603E-02
  4.66983247219E-02  4.66984939828E-02  4.66986837595E-02  4.66988962108E-02
  4.66991336206E-02  4.66993983690E-02  4.66996928858E-02  4.67000195825E-02
  4.67003807529E-02  4.67007784339E-02  4.67012142130E-02  4.67016889664E-02
  4.67022025045E-02  4.67027530993E-02  4.67033368557E-02  4.67039468829E-02
  4.67045722050E-02  4.67051963376E-02  4.67057954335E-02  4.67063358764E-02
  4.67067711678E-02  4.67070379116E-02  4.67070506503E-02  4.67066952424E-02
  4.67058203932E-02  4.67042268550E-02  4.67016536959E-02  4.66977608986E-02
  4.66921073808E-02  4.66841233389E-02  4.66730755908E-02  4.66580243489E-02
  4.66377695873E-02  4.66107849015E-02  4.65751365151E-02  4.65283849119E-02
  4.64674665275E-02  4.63885531205E-02  4.62868869900E-02  4.61565913084E-02
  4.59904567389E-02  4.57797085126E-02  4.55137626360E-02  4.51799862816E-02
  4.47634860893E-02  4.42469593442E-02  4.36106567872E-02  4.28325215896E-02
  4.18885852809E-02  4.07537152646E-02  3.94028151879E-02  3.78125717343E-02
  3.59638099909E-02  3.38444535585E-02  3.14529751309E-02  2.88020638147E-02
  2.59220347505E-02  2.28632931968E-02  1.96969963506E-02  1.65130190558E-02
  1.34145289401E-02  1.05089998096E-02  7.89635054590E-03  5.65595641721E-03
  3.83522046865E-03  2.44275195224E-03  1.44854696237E-03  7.91791521505E-04
  3.94466953089E-04  1.76843457047E-04  7.03199392615E-05  2.44000290671E-05
  7.25278417194E-06  1.80861582494E-06  3.69524212184E-07  6.02234304114E-08
  7.59533431504E-09  7.16268960054E-10  4.85808950414E-11  2.26770585509E-12
  6.93061515686E-14  1.31061233108E-15  0.00000000000E+00  0.00000000000E+00
  0.00000000000E+00  0.00000000000E+00  0.00000000000E+00  0.00000000000E+00
  0.00000000000E+00  0.00000000000E+00  0.00000000000E+00  0.00000000000E+00
  0.00000000000E+00  0.00000000000E+00  0.00000000000E+00  0.00000000000E+00
  0.00000000000E+00  0.00000000000E+00  0.00000000000E+00  0.00000000000E+00
  0.00000000000E+00  0.00000000000E+00  0.00000000000E+00  0.00000000000E+00
  0.00000000000E+00  0.00000000000E+00  0.00000000000E+00  0.00000000000E+00
  0.00000000000E+00  0.00000000000E+00  0.00000000000E+00  0.00000000000E+00
  0.00000000000E+00  0.00000000000E+00  0.00000000000E+00
</PP_NLCC>


<PP_LOCAL>
  5.34300896706E+00  5.34300859227E+00  5.34300816759E+00  5.34300768636E+00
  5.34300714105E+00  5.34300652314E+00  5.34300582295E+00  5.34300502953E+00
  5.34300413047E+00  5.34300311170E+00  5.34300195729E+00  5.34300064917E+00
  5.34299916687E+00  5.34299748721E+00  5.34299558390E+00  5.34299342717E+00
  5.34299098328E+00  5.34298821398E+00  5.34298507596E+00  5.34298152012E+00
  5.34297749082E+00  5.34297292503E+00  5.34296775132E+00  5.34296188873E+00
  5.34295524555E+00  5.34294771785E+00  5.34293918784E+00  5.34292952209E+00
  5.34291856936E+00  5.34290615830E+00  5.34289209474E+00  5.34287615865E+00
  5.34285810072E+00  5.34283763842E+00  5.34281445163E+00  5.34278817759E+00
  5.34275840525E+00  5.34272466884E+00  5.34268644056E+00  5.34264312234E+00
  5.34259403651E+00  5.34253841514E+00  5.34247538810E+00  5.34240396939E+00
  5.34232304176E+00  5.34223133920E+00  5.34212742719E+00  5.34200968023E+00
  5.34187625645E+00  5.34172506876E+00  5.34155375231E+00  5.34135962744E+00
  5.34113965784E+00  5.34089040310E+00  5.34060796493E+00  5.34028792627E+00
  5.33992528231E+00  5.33951436230E+00  5.33904874104E+00  5.33852113858E+00
  5.33792330666E+00  5.33724590002E+00  5.33647833070E+00  5.33560860306E+00
  5.33462312694E+00  5.33350650610E+00  5.33224129871E+00  5.33080774630E+00
  5.32918346686E+00  5.32734310766E+00  5.32525795236E+00  5.32289547662E+00
  5.32021884556E+00  5.31718634552E+00  5.31375074194E+00  5.30985855374E+00
  5.30544923404E+00  5.30045424528E+00  5.29479601587E+00  5.28838676405E+00
  5.28112717293E+00  5.27290489938E+00  5.26359289769E+00  5.25304753741E+00
  5.24110649316E+00  5.22758638324E+00  5.21228013253E+00  5.19495403523E+00
  5.17534449355E+00  5.15315441015E+00  5.12804921658E+00  5.09965252636E+00
  5.06754141230E+00  5.03124132387E+00  4.99022068391E+00  4.94388523836E+00
  4.89157227982E+00  4.83254493174E+00  4.76598676954E+00  4.69099717518E+00
  4.60658798063E+00  4.51168216259E+00  4.40511561469E+00  4.28564335233E+00
  4.15195190221E+00  4.00268008936E+00  3.83645093596E+00  3.65191788182E+00
  3.44782893597E+00  3.22311252489E+00  2.97698849188E+00  2.70910660606E+00
  2.41971265323E+00  2.10983823813E+00  1.78150439761E+00  1.43792078544E+00
  1.08365182534E+00  7.24710022245E-01  3.68527094270E-01  2.37498894888E-02
 -3.00184240787E-01 -5.93712955547E-01 -8.48029732478E-01 -1.05608980546E+00
 -1.21358018226E+00 -1.31963959720E+00 -1.37711066789E+00 -1.39217907989E+00
 -1.37340542073E+00 -1.33034549956E+00 -1.27210737301E+00 -1.20622494015E+00
 -1.13810384472E+00 -1.07106650679E+00 -1.00680816630E+00 -9.45984860487E-01
 -8.88710640147E-01 -8.34873684022E-01 -7.84292276146E-01 -7.36774518820E-01
 -6.92135615752E-01 -6.50201239126E-01 -6.10807537508E-01 -5.73800579601E-01
 -5.39035759927E-01 -5.06377234199E-01 -4.75697388518E-01 -4.46876340720E-01
 -4.19801471935E-01 -3.94366986524E-01 -3.70473498683E-01 -3.48027644089E-01
 -3.26941715077E-01 -3.07133317922E-01 -2.88525050881E-01 -2.71044201747E-01
 -2.54622463721E-01 -2.39195668505E-01 -2.24703535562E-01 -2.11089436567E-01
 -1.98300174133E-01 -1.86285773939E-01 -1.74999289455E-01 -1.64396618497E-01
 -1.54436330898E-01 -1.45079506619E-01 -1.36289583664E-01 -1.28032215220E-01
 -1.20275135438E-01 -1.12988033362E-01 -1.06142434482E-01 -9.97115894714E-02
 -9.36703696633E-02 -8.79951688603E-02 -8.26638110918E-02 -7.76554639616E-02
 -7.29505572444E-02 -6.85307064149E-02 -6.43786408100E-02
</PP_LOCAL>


<PP_NONLOCAL>
  <PP_BETA>
    1    1             Beta    L
   150
 -2.25639163437E-06 -2.55682624864E-06 -2.89726331384E-06 -3.28302904759E-06
 -3.72016122250E-06 -4.21549671138E-06 -4.77678544835E-06 -5.41280845283E-06
 -6.13351684983E-06 -6.95018578997E-06 -7.87559241279E-06 -8.92421429650E-06
 -1.01124573680E-05 -1.14589112396E-05 -1.29846407770E-05 -1.47135154192E-05
 -1.66725825136E-05 -1.88924895741E-05 -2.14079666317E-05 -2.42583652875E-05
 -2.74882763016E-05 -3.11482248644E-05 -3.52954679185E-05 -3.99948777689E-05
 -4.53199678398E-05 -5.13540317624E-05 -5.81914550277E-05 -6.59391839169E-05
 -7.47183956786E-05 -8.46664003572E-05 -9.59387758702E-05 -1.08711807329E-04
 -1.23185232136E-04 -1.39585365166E-04 -1.58168627461E-04 -1.79225545850E-04
 -2.03085292472E-04 -2.30120819524E-04 -2.60754634248E-04 -2.95465463822E-04
 -3.34795597339E-04 -3.79359423160E-04 -4.29852922661E-04 -4.87064524235E-04
 -5.51887246618E-04 -6.25332686160E-04 -7.08546571847E-04 -8.02826473905E-04
 -9.09641945063E-04 -1.03065699869E-03 -1.16775587444E-03 -1.32307178528E-03
 -1.49901967184E-03 -1.69833291698E-03 -1.92410526815E-03 -2.17983681804E-03
 -2.46948810883E-03 -2.79753798079E-03 -3.16905184568E-03 -3.58975578456E-03
 -4.06612069817E-03 -4.60545764260E-03 -5.21602187335E-03 -5.90713200252E-03
 -6.68930059992E-03 -7.57437971252E-03 -8.57572326007E-03 -9.70836502157E-03
 -1.09892148903E-02 -1.24372735511E-02 -1.40738663307E-02 -1.59228949356E-02
 -1.80111093408E-02 -2.03683906746E-02 -2.30280549307E-02 -2.60271599876E-02
 -2.94068098287E-02 -3.32124571002E-02 -3.74941782970E-02 -4.23069082756E-02
 -4.77106006795E-02 -5.37703050935E-02 -6.05560871108E-02 -6.81427572056E-02
 -7.66093564522E-02 -8.60382880942E-02 -9.65140239712E-02 -1.08121262939E-01
 -1.20942417671E-01 -1.35054269589E-01 -1.50523664705E-01 -1.67402053375E-01
 -1.85718768071E-01 -2.05472871070E-01 -2.26623646158E-01 -2.49079560181E-01
 -2.72686178406E-01 -2.97213372321E-01 -3.22342381714E-01 -3.47654184349E-01
 -3.72620396677E-01 -3.96598875517E-01 -4.18836284968E-01 -4.38480140044E-01
 -4.54603009859E-01 -4.66240626618E-01 -4.72444535799E-01 -4.72348238161E-01
 -4.65242525105E-01 -4.50653263876E-01 -4.28411520797E-01 -3.98704578580E-01
 -3.62096789982E-01 -3.19512932842E-01 -2.72184089666E-01 -2.21565577541E-01
 -1.69246155116E-01 -1.16873325059E-01 -6.61164298872E-02 -1.86742680053E-02
  2.36931837201E-02  5.91615379316E-02  8.59417785528E-02  1.02545979819E-01
  1.08215959956E-01  1.03394645273E-01  9.00048577996E-02  7.12838785832E-02
  5.10856921070E-02  3.28640329810E-02  1.87923179619E-02  9.44221093499E-03
  4.11361754987E-03  1.53026639075E-03  4.77536941983E-04  1.22479296736E-04
  2.52183211119E-05  4.05748846030E-06  4.94670466057E-07  4.41237815594E-08
  2.76720108319E-09  1.16631363906E-10  3.13896816622E-12  5.09011159422E-14
  4.88023954581E-16  0.00000000000E+00  0.00000000000E+00  0.00000000000E+00
  0.00000000000E+00  0.00000000000E+00
  </PP_BETA>
  <PP_DIJ>
    1                  Number of nonzero Dij
    1    1  2.13387129836E+02
  </PP_DIJ>
</PP_NONLOCAL>


<PP_PSWFC>
4S    0  2.00          Wavefunction
  3.55031960000E-05  3.77929550000E-05  4.02303910000E-05  4.28250280000E-05
  4.55870070000E-05  4.85271200000E-05  5.16568550000E-05  5.49884440000E-05
  5.85349040000E-05  6.23100940000E-05  6.63287680000E-05  7.06066280000E-05
  7.51603920000E-05  8.00078560000E-05  8.51679630000E-05  9.06608780000E-05
  9.65080670000E-05  1.02732380000E-04  1.09358150000E-04  1.16411260000E-04
  1.23919290000E-04  1.31911570000E-04  1.40419350000E-04  1.49475870000E-04
  1.59116550000E-04  1.69379060000E-04  1.80303520000E-04  1.91932650000E-04
  2.04311900000E-04  2.17489680000E-04  2.31517520000E-04  2.46450280000E-04
  2.62346350000E-04  2.79267930000E-04  2.97281200000E-04  3.16456650000E-04
  3.36869320000E-04  3.58599100000E-04  3.81731070000E-04  4.06355820000E-04
  4.32569800000E-04  4.60475730000E-04  4.90183000000E-04  5.21808110000E-04
  5.55475140000E-04  5.91316250000E-04  6.29472210000E-04  6.70093010000E-04
  7.13338450000E-04  7.59378770000E-04  8.08395440000E-04  8.60581860000E-04
  9.16144200000E-04  9.75302300000E-04  1.03829060000E-03  1.10535910000E-03
  1.17677480000E-03  1.25282240000E-03  1.33380600000E-03  1.42005050000E-03
  1.51190290000E-03  1.60973440000E-03  1.71394190000E-03  1.82495040000E-03
  1.94321510000E-03  2.06922380000E-03  2.20350010000E-03  2.34660620000E-03
  2.49914680000E-03  2.66177250000E-03  2.83518490000E-03  3.02014110000E-03
  3.21746010000E-03  3.42802890000E-03  3.65281020000E-03  3.89285140000E-03
  4.14929430000E-03  4.42338740000E-03  4.71649870000E-03  5.03013260000E-03
  5.36594800000E-03  5.72578050000E-03  6.11166840000E-03  6.52588360000E-03
  6.97096750000E-03  7.44977510000E-03  7.96552600000E-03  8.52186660000E-03
  9.12294360000E-03  9.77349300000E-03  1.04789460000E-02  1.12455590000E-02
  1.20805650000E-02  1.29923640000E-02  1.39907450000E-02  1.50871660000E-02
  1.62950770000E-02  1.76303290000E-02  1.91116580000E-02  2.07612790000E-02
  2.26056040000E-02  2.46761070000E-02  2.70103760000E-02  2.96533690000E-02
  3.26589260000E-02  3.60915480000E-02  4.00284900000E-02  4.45621680000E-02
  4.98028650000E-02  5.58816570000E-02  6.29534090000E-02  7.11995510000E-02
  8.08301210000E-02  9.20843390000E-02  1.05228570000E-01  1.20550150000E-01
  1.38345110000E-01  1.58897680000E-01  1.82449310000E-01  2.09156260000E-01
  2.39036370000E-01  2.71909090000E-01  3.07337550000E-01  3.44585760000E-01
  3.82607130000E-01  4.20078620000E-01  4.55487230000E-01  4.87261380000E-01
  5.13924470000E-01  5.34237750000E-01  5.47301580000E-01  5.52598660000E-01
  5.49983530000E-01  5.39638950000E-01  5.22023080000E-01  4.97823010000E-01
  4.67917220000E-01  4.33341270000E-01  3.95249410000E-01  3.54868440000E-01
  3.13444780000E-01  2.72186400000E-01  2.32206300000E-01  1.94470890000E-01
  1.59758170000E-01  1.28629700000E-01  1.01419090000E-01  7.82381430000E-02
  5.89991950000E-02  4.34506870000E-02  3.12209570000E-02  2.18648770000E-02
  1.49080570000E-02  9.88444790000E-03  6.36471960000E-03  3.97453360000E-03
  2.40317380000E-03  1.40456850000E-03  7.91656020000E-04  4.29369350000E-04
  2.23738680000E-04  1.11771190000E-04  5.33817630000E-05  2.43019900000E-05
  1.05123190000E-05  4.30614480000E-06  1.66431440000E-06  6.04578760000E-07
  2.05561900000E-07  6.51299870000E-08  1.91399550000E-08  5.19044170000E-09
  1.29256800000E-09  2.92692470000E-10  5.86642140000E-11  0.00000000000E+00
  0.00000000000E+00  0.00000000000E+00  0.00000000000E+00
4P    1  0.00          Wavefunction
  1.33245990000E-07  1.50987480000E-07  1.71091230000E-07  1.93871770000E-07
  2.19685650000E-07  2.48936610000E-07  2.82082310000E-07  3.19641300000E-07
  3.62201230000E-07  4.10427940000E-07  4.65075970000E-07  5.27000280000E-07
  5.97169710000E-07  6.76682060000E-07  7.66781310000E-07  8.68877070000E-07
  9.84566630000E-07  1.11565990000E-06  1.26420790000E-06  1.43253460000E-06
  1.62327340000E-06  1.83940820000E-06  2.08432050000E-06  2.36184160000E-06
  2.67631320000E-06  3.03265470000E-06  3.43644070000E-06  3.89398780000E-06
  4.41245330000E-06  4.99994760000E-06  5.66566040000E-06  6.42000490000E-06
  7.27478010000E-06  8.24335560000E-06  9.34088030000E-06  1.05845190000E-05
  1.19937210000E-05  1.35905240000E-05  1.53998960000E-05  1.74501300000E-05
  1.97732790000E-05  2.24056620000E-05  2.53884270000E-05  2.87681950000E-05
  3.25977810000E-05  3.69370250000E-05  4.18537170000E-05  4.74246510000E-05
  5.37368250000E-05  6.08887820000E-05  6.89921490000E-05  7.81733570000E-05
  8.85756040000E-05  1.00361060000E-04  1.13713390000E-04  1.28840530000E-04
  1.45977960000E-04  1.65392220000E-04  1.87385070000E-04  2.12298030000E-04
  2.40517560000E-04  2.72480960000E-04  3.08682860000E-04  3.49682700000E-04
  3.96113010000E-04  4.48688730000E-04  5.08217730000E-04  5.75612510000E-04
  6.51903310000E-04  7.38252730000E-04  8.35972020000E-04  9.46539110000E-04
  1.07161870000E-03  1.21308410000E-03  1.37304170000E-03  1.55385740000E-03
  1.75818510000E-03  1.98899790000E-03  2.24962120000E-03  2.54376780000E-03
  2.87557410000E-03  3.24963820000E-03  3.67105710000E-03  4.14546290000E-03
  4.67905720000E-03  5.27863970000E-03  5.95162980000E-03  6.70607720000E-03
  7.55065770000E-03  8.49464820000E-03  9.54787670000E-03  1.07206380000E-02
  1.20235700000E-02  1.34674790000E-02  1.50631140000E-02  1.68208680000E-02
  1.87504190000E-02  2.08603040000E-02  2.31574200000E-02  2.56464920000E-02
  2.83295170000E-02  3.12052460000E-02  3.42687680000E-02  3.75112860000E-02
  4.09202230000E-02  4.44797930000E-02  4.81721960000E-02  5.19796280000E-02
  5.58872260000E-02  5.98870820000E-02  6.39833310000E-02  6.81982460000E-02
  7.25791220000E-02  7.72055730000E-02  8.21967400000E-02  8.77177250000E-02
  9.39843930000E-02  1.01265440000E-01  1.09880190000E-01  1.20190070000E-01
  1.32581000000E-01  1.47433570000E-01  1.65078320000E-01  1.85735930000E-01
  2.09447160000E-01  2.36004270000E-01  2.64903470000E-01  2.95339560000E-01
  3.26257170000E-01  3.56454840000E-01  3.84717020000E-01  4.09935640000E-01
  4.31189110000E-01  4.47768360000E-01  4.59164480000E-01  4.65043800000E-01
  4.65230800000E-01  4.59705070000E-01  4.48607130000E-01  4.32244550000E-01
  4.11091660000E-01  3.85779780000E-01  3.57076430000E-01  3.25853940000E-01
  2.93048600000E-01  2.59613230000E-01  2.26466230000E-01  1.94443690000E-01
  1.64258410000E-01  1.36470100000E-01  1.11469340000E-01  8.94760910000E-02
  7.05512010000E-02  5.46182970000E-02  4.14923270000E-02  3.09109190000E-02
  2.25644430000E-02  1.61266380000E-02  1.12656630000E-02  7.68530720000E-03
  5.11811770000E-03  3.32355370000E-03  2.10091570000E-03  1.29047930000E-03
  7.68780380000E-04  4.43282500000E-04  2.46857210000E-04  1.32463190000E-04
  6.83216970000E-05  3.37825760000E-05  1.59689870000E-05  7.19445940000E-06
  3.07940120000E-06  1.24732680000E-06  4.75793580000E-07  0.00000000000E+00
  0.00000000000E+00  0.00000000000E+00  0.00000000000E+00
</PP_PSWFC>


<PP_RHOATOM>
  2.52095385243E-09  2.85661489526E-09  3.23696872003E-09  3.66796604640E-09
  4.15635041444E-09  4.70976275099E-09  5.33686133698E-09  6.04745794708E-09
  6.85266997258E-09  7.76509562858E-09  8.79901092880E-09  9.97059183506E-09
  1.12981690512E-08  1.28025140434E-08  1.45071638431E-08  1.64387895995E-08
  1.86276139922E-08  2.11078838009E-08  2.39184099428E-08  2.71031629096E-08
  3.07119808682E-08  3.48013245997E-08  3.94351877088E-08  4.46860714245E-08
  5.06361529678E-08  5.73785319330E-08  6.50187186488E-08  7.36762842720E-08
  8.34867049632E-08  9.46035218130E-08  1.07200724134E-07  1.21475481024E-07
  1.37651214717E-07  1.55981153453E-07  1.76752223747E-07  2.00289622658E-07
  2.26961877515E-07  2.57186629042E-07  2.91437219607E-07  3.30250104896E-07
  3.74233263744E-07  4.24075795838E-07  4.80558746978E-07  5.44567407324E-07
  6.17105262316E-07  6.99309815028E-07  7.92470526325E-07  8.98049284102E-07
  1.01770348850E-06  1.15331223265E-06  1.30700637483E-06  1.48120227552E-06
  1.67864039039E-06  1.90242915277E-06  2.15609474010E-06  2.44363747991E-06
  2.76959785983E-06  3.13912793188E-06  3.55807689127E-06  4.03308684510E-06
  4.57170075806E-06  5.18248967709E-06  5.87519367315E-06  6.66088792492E-06
  7.55216984974E-06  8.56337426897E-06  9.71082538140E-06  1.10131213158E-05
  1.24914694559E-05  1.41700656835E-05  1.60765468344E-05  1.82425045278E-05
  2.07040989902E-05  2.35027642785E-05  2.66860447144E-05  3.03085840450E-05
  3.44332863760E-05  3.91327121810E-05  4.44907199742E-05  5.06044679472E-05
  5.75867958774E-05  6.55691246684E-05  7.47049812631E-05  8.51743135215E-05
  9.71887757721E-05  1.10998298081E-04  1.26899208913E-04  1.45244420696E-04
  1.66456199858E-04  1.91042330842E-04  2.19616618542E-04  2.52925194445E-04
  2.91880101438E-04  3.37603044617E-04  3.91481891310E-04  4.55245155823E-04
  5.31059068872E-04  6.21657001296E-04  7.30510943018E-04  8.62061411432E-04
  1.02202666441E-03  1.21782051335E-03  1.45912082332E-03  1.75864458610E-03
  2.13321089495E-03  2.60519967407E-03  3.20456002336E-03  3.97157363372E-03
  4.96065072442E-03  6.24551917813E-03  7.92626340944E-03  1.01387521252E-02
  1.30670169217E-02  1.69590509781E-02  2.21461038885E-02  2.90646773300E-02
  3.82787389218E-02  5.04969454188E-02  6.65755014390E-02  8.74926821944E-02
  1.14276772366E-01  1.47869106449E-01  1.88912739280E-01  2.37478691990E-01
  2.92776431854E-01  3.52932093962E-01  4.14937233386E-01  4.74847304879E-01
  5.28236721730E-01  5.70819947050E-01  5.99078038941E-01  6.10730558068E-01
  6.04963766543E-01  5.82420392714E-01  5.45016192105E-01  4.95655498571E-01
  4.37893049545E-01  3.75569312570E-01  3.12444192211E-01  2.51863219416E-01
  1.96495260218E-01  1.48170872690E-01  1.07839531519E-01  7.56378541148E-02
  5.10453457635E-02  3.30911994442E-02  2.05716636329E-02  1.22424140402E-02
  6.96181002130E-03  3.77592440154E-03  1.94949631199E-03  9.56145692450E-04
  4.44500327030E-04  1.95404620576E-04  8.10193111732E-05  3.15938346751E-05
  1.15504886260E-05  3.94562534238E-06  1.25343850800E-06  3.68716077439E-07
  1.00117993856E-07  2.49855978280E-08  5.69922524198E-09  1.18117343592E-09
  2.21017701516E-10  3.70857660771E-11  5.53988484409E-12  7.31030954086E-13
  8.45113894632E-14  8.48383041324E-15  7.32675754804E-16  5.38813700822E-17
  3.34146406925E-18  1.71337763989E-19  6.88298000848E-21  0.00000000000E+00
  0.00000000000E+00  0.00000000000E+00  0.00000000000E+00
</PP_RHOATOM>
