 *********************************************************
 *                                                       *
 *                  WELCOME TO ABACUS                    *
 *                                                       *
 *            'Atomic-orbital Based Ab-initio            *
 *                  Computation at UStc'                 *
 *                                                       *
 *          Website: http://abacus.ustc.edu.cn/          *
 *                                                       *
 *********************************************************
 Mon Jul 12 13:45:22 2021
 MAKE THE DIR         : OUT.autotest/
0               0               0               0       0       0       
0.125           0               0.125           0       0       0       
0.25            0               0.25            0       0       0       
0.375           0               0.375           0       0       0       
0               0.125           0.125           0       0       0       
0.125           0.125           0.25            0       0       0       
0.25            0.125           0.375           0       0       0       
0.375           0.125           0.5             0       0       0       
0               0.25            0.25            0       0       0       
0.125           0.25            0.375           0       0       0       
0.25            0.25            0.5             0       0       0       
0.375           0.25            0.625           0       0       0       
0               0.375           0.375           0       0       0       
0.125           0.375           0.5             0       0       0       
0.25            0.375           0.625           0       0       0       
0.375           0.375           0.75            0       0       0       
0.125           0.125           0               0       0       0       
0.25            0.125           0.125           0       0       0       
0.375           0.125           0.25            0       0       0       
0.5             0.125           0.375           0       0       0       
0.125           0.25            0.125           0       0       0       
0.25            0.25            0.25            0       0       0       
0.375           0.25            0.375           0       0       0       
0.5             0.25            0.5             0       0       0       
0.125           0.375           0.25            0       0       0       
0.25            0.375           0.375           0       0       0       
0.375           0.375           0.5             0       0       0       
0.5             0.375           0.625           0       0       0       
0.125           0.5             0.375           0       0       0       
0.25            0.5             0.5             0       0       0       
0.375           0.5             0.625           0       0       0       
0.5             0.5             0.75            0       0       0       
0.25            0.25            0               0       0       0       
0.375           0.25            0.125           0       0       0       
0.5             0.25            0.25            0       0       0       
0.625           0.25            0.375           0       0       0       
0.25            0.375           0.125           0       0       0       
0.375           0.375           0.25            0       0       0       
0.5             0.375           0.375           0       0       0       
0.625           0.375           0.5             0       0       0       
0.25            0.5             0.25            0       0       0       
0.375           0.5             0.375           0       0       0       
0.5             0.5             0.5             0       0       0       
0.625           0.5             0.625           0       0       0       
0.25            0.625           0.375           0       0       0       
0.375           0.625           0.5             0       0       0       
0.5             0.625           0.625           0       0       0       
0.625           0.625           0.75            0       0       0       
0.375           0.375           0               0       0       0       
0.5             0.375           0.125           0       0       0       
0.625           0.375           0.25            0       0       0       
0.75            0.375           0.375           0       0       0       
0.375           0.5             0.125           0       0       0       
0.5             0.5             0.25            0       0       0       
0.625           0.5             0.375           0       0       0       
0.75            0.5             0.5             0       0       0       
0.375           0.625           0.25            0       0       0       
0.5             0.625           0.375           0       0       0       
0.625           0.625           0.5             0       0       0       
0.75            0.625           0.625           0       0       0       
0.375           0.75            0.375           0       0       0       
0.5             0.75            0.5             0       0       0       
0.625           0.75            0.625           0       0       0       
0.75            0.75            0.75            0       0       0       
0.0625          0.0625          0.125           0       0       0       
0.1875          0.0625          0.25            0       0       0       
0.3125          0.0625          0.375           0       0       0       
0.4375          0.0625          0.5             0       0       0       
0.0625          0.1875          0.25            0       0       0       
0.1875          0.1875          0.375           0       0       0       
0.3125          0.1875          0.5             0       0       0       
0.4375          0.1875          0.625           0       0       0       
0.0625          0.3125          0.375           0       0       0       
0.1875          0.3125          0.5             0       0       0       
0.3125          0.3125          0.625           0       0       0       
0.4375          0.3125          0.75            0       0       0       
0.0625          0.4375          0.5             0       0       0       
0.1875          0.4375          0.625           0       0       0       
0.3125          0.4375          0.75            0       0       0       
0.4375          0.4375          0.875           0       0       0       
0.1875          0.1875          0.125           0       0       0       
0.3125          0.1875          0.25            0       0       0       
0.4375          0.1875          0.375           0       0       0       
0.5625          0.1875          0.5             0       0       0       
0.1875          0.3125          0.25            0       0       0       
0.3125          0.3125          0.375           0       0       0       
0.4375          0.3125          0.5             0       0       0       
0.5625          0.3125          0.625           0       0       0       
0.1875          0.4375          0.375           0       0       0       
0.3125          0.4375          0.5             0       0       0       
0.4375          0.4375          0.625           0       0       0       
0.5625          0.4375          0.75            0       0       0       
0.1875          0.5625          0.5             0       0       0       
0.3125          0.5625          0.625           0       0       0       
0.4375          0.5625          0.75            0       0       0       
0.5625          0.5625          0.875           0       0       0       
0.3125          0.3125          0.125           0       0       0       
0.4375          0.3125          0.25            0       0       0       
0.5625          0.3125          0.375           0       0       0       
0.6875          0.3125          0.5             0       0       0       
0.3125          0.4375          0.25            0       0       0       
0.4375          0.4375          0.375           0       0       0       
0.5625          0.4375          0.5             0       0       0       
0.6875          0.4375          0.625           0       0       0       
0.3125          0.5625          0.375           0       0       0       
0.4375          0.5625          0.5             0       0       0       
0.5625          0.5625          0.625           0       0       0       
0.6875          0.5625          0.75            0       0       0       
0.3125          0.6875          0.5             0       0       0       
0.4375          0.6875          0.625           0       0       0       
0.5625          0.6875          0.75            0       0       0       
0.6875          0.6875          0.875           0       0       0       
0.4375          0.4375          0.125           0       0       0       
0.5625          0.4375          0.25            0       0       0       
0.6875          0.4375          0.375           0       0       0       
0.8125          0.4375          0.5             0       0       0       
0.4375          0.5625          0.25            0       0       0       
0.5625          0.5625          0.375           0       0       0       
0.6875          0.5625          0.5             0       0       0       
0.8125          0.5625          0.625           0       0       0       
0.4375          0.6875          0.375           0       0       0       
0.5625          0.6875          0.5             0       0       0       
0.6875          0.6875          0.625           0       0       0       
0.8125          0.6875          0.75            0       0       0       
0.4375          0.8125          0.5             0       0       0       
0.5625          0.8125          0.625           0       0       0       
0.6875          0.8125          0.75            0       0       0       
0.8125          0.8125          0.875           0       0       0       
0.125           0.0625          0.0625          0       0       0       
0.25            0.0625          0.1875          0       0       0       
0.375           0.0625          0.3125          0       0       0       
0.5             0.0625          0.4375          0       0       0       
0.125           0.1875          0.1875          0       0       0       
0.25            0.1875          0.3125          0       0       0       
0.375           0.1875          0.4375          0       0       0       
0.5             0.1875          0.5625          0       0       0       
0.125           0.3125          0.3125          0       0       0       
0.25            0.3125          0.4375          0       0       0       
0.375           0.3125          0.5625          0       0       0       
0.5             0.3125          0.6875          0       0       0       
0.125           0.4375          0.4375          0       0       0       
0.25            0.4375          0.5625          0       0       0       
0.375           0.4375          0.6875          0       0       0       
0.5             0.4375          0.8125          0       0       0       
0.25            0.1875          0.0625          0       0       0       
0.375           0.1875          0.1875          0       0       0       
0.5             0.1875          0.3125          0       0       0       
0.625           0.1875          0.4375          0       0       0       
0.25            0.3125          0.1875          0       0       0       
0.375           0.3125          0.3125          0       0       0       
0.5             0.3125          0.4375          0       0       0       
0.625           0.3125          0.5625          0       0       0       
0.25            0.4375          0.3125          0       0       0       
0.375           0.4375          0.4375          0       0       0       
0.5             0.4375          0.5625          0       0       0       
0.625           0.4375          0.6875          0       0       0       
0.25            0.5625          0.4375          0       0       0       
0.375           0.5625          0.5625          0       0       0       
0.5             0.5625          0.6875          0       0       0       
0.625           0.5625          0.8125          0       0       0       
0.375           0.3125          0.0625          0       0       0       
0.5             0.3125          0.1875          0       0       0       
0.625           0.3125          0.3125          0       0       0       
0.75            0.3125          0.4375          0       0       0       
0.375           0.4375          0.1875          0       0       0       
0.5             0.4375          0.3125          0       0       0       
0.625           0.4375          0.4375          0       0       0       
0.75            0.4375          0.5625          0       0       0       
0.375           0.5625          0.3125          0       0       0       
0.5             0.5625          0.4375          0       0       0       
0.625           0.5625          0.5625          0       0       0       
0.75            0.5625          0.6875          0       0       0       
0.375           0.6875          0.4375          0       0       0       
0.5             0.6875          0.5625          0       0       0       
0.625           0.6875          0.6875          0       0       0       
0.75            0.6875          0.8125          0       0       0       
0.5             0.4375          0.0625          0       0       0       
0.625           0.4375          0.1875          0       0       0       
0.75            0.4375          0.3125          0       0       0       
0.875           0.4375          0.4375          0       0       0       
0.5             0.5625          0.1875          0       0       0       
0.625           0.5625          0.3125          0       0       0       
0.75            0.5625          0.4375          0       0       0       
0.875           0.5625          0.5625          0       0       0       
0.5             0.6875          0.3125          0       0       0       
0.625           0.6875          0.4375          0       0       0       
0.75            0.6875          0.5625          0       0       0       
0.875           0.6875          0.6875          0       0       0       
0.5             0.8125          0.4375          0       0       0       
0.625           0.8125          0.5625          0       0       0       
0.75            0.8125          0.6875          0       0       0       
0.875           0.8125          0.8125          0       0       0       
0.0625          0.125           0.0625          0       0       0       
0.1875          0.125           0.1875          0       0       0       
0.3125          0.125           0.3125          0       0       0       
0.4375          0.125           0.4375          0       0       0       
0.0625          0.25            0.1875          0       0       0       
0.1875          0.25            0.3125          0       0       0       
0.3125          0.25            0.4375          0       0       0       
0.4375          0.25            0.5625          0       0       0       
0.0625          0.375           0.3125          0       0       0       
0.1875          0.375           0.4375          0       0       0       
0.3125          0.375           0.5625          0       0       0       
0.4375          0.375           0.6875          0       0       0       
0.0625          0.5             0.4375          0       0       0       
0.1875          0.5             0.5625          0       0       0       
0.3125          0.5             0.6875          0       0       0       
0.4375          0.5             0.8125          0       0       0       
0.1875          0.25            0.0625          0       0       0       
0.3125          0.25            0.1875          0       0       0       
0.4375          0.25            0.3125          0       0       0       
0.5625          0.25            0.4375          0       0       0       
0.1875          0.375           0.1875          0       0       0       
0.3125          0.375           0.3125          0       0       0       
0.4375          0.375           0.4375          0       0       0       
0.5625          0.375           0.5625          0       0       0       
0.1875          0.5             0.3125          0       0       0       
0.3125          0.5             0.4375          0       0       0       
0.4375          0.5             0.5625          0       0       0       
0.5625          0.5             0.6875          0       0       0       
0.1875          0.625           0.4375          0       0       0       
0.3125          0.625           0.5625          0       0       0       
0.4375          0.625           0.6875          0       0       0       
0.5625          0.625           0.8125          0       0       0       
0.3125          0.375           0.0625          0       0       0       
0.4375          0.375           0.1875          0       0       0       
0.5625          0.375           0.3125          0       0       0       
0.6875          0.375           0.4375          0       0       0       
0.3125          0.5             0.1875          0       0       0       
0.4375          0.5             0.3125          0       0       0       
0.5625          0.5             0.4375          0       0       0       
0.6875          0.5             0.5625          0       0       0       
0.3125          0.625           0.3125          0       0       0       
0.4375          0.625           0.4375          0       0       0       
0.5625          0.625           0.5625          0       0       0       
0.6875          0.625           0.6875          0       0       0       
0.3125          0.75            0.4375          0       0       0       
0.4375          0.75            0.5625          0       0       0       
0.5625          0.75            0.6875          0       0       0       
0.6875          0.75            0.8125          0       0       0       
0.4375          0.5             0.0625          0       0       0       
0.5625          0.5             0.1875          0       0       0       
0.6875          0.5             0.3125          0       0       0       
0.8125          0.5             0.4375          0       0       0       
0.4375          0.625           0.1875          0       0       0       
0.5625          0.625           0.3125          0       0       0       
0.6875          0.625           0.4375          0       0       0       
0.8125          0.625           0.5625          0       0       0       
0.4375          0.75            0.3125          0       0       0       
0.5625          0.75            0.4375          0       0       0       
0.6875          0.75            0.5625          0       0       0       
0.8125          0.75            0.6875          0       0       0       
0.4375          0.875           0.4375          0       0       0       
0.5625          0.875           0.5625          0       0       0       
0.6875          0.875           0.6875          0       0       0       
0.8125          0.875           0.8125          0       0       0       
0.0625          0.0625          0.0625          0       0       0       
0.1875          0.0625          0.1875          0       0       0       
0.3125          0.0625          0.3125          0       0       0       
0.4375          0.0625          0.4375          0       0       0       
0.0625          0.1875          0.1875          0       0       0       
0.1875          0.1875          0.3125          0       0       0       
0.3125          0.1875          0.4375          0       0       0       
0.4375          0.1875          0.5625          0       0       0       
0.0625          0.3125          0.3125          0       0       0       
0.1875          0.3125          0.4375          0       0       0       
0.3125          0.3125          0.5625          0       0       0       
0.4375          0.3125          0.6875          0       0       0       
0.0625          0.4375          0.4375          0       0       0       
0.1875          0.4375          0.5625          0       0       0       
0.3125          0.4375          0.6875          0       0       0       
0.4375          0.4375          0.8125          0       0       0       
0.1875          0.1875          0.0625          0       0       0       
0.3125          0.1875          0.1875          0       0       0       
0.4375          0.1875          0.3125          0       0       0       
0.5625          0.1875          0.4375          0       0       0       
0.1875          0.3125          0.1875          0       0       0       
0.3125          0.3125          0.3125          0       0       0       
0.4375          0.3125          0.4375          0       0       0       
0.5625          0.3125          0.5625          0       0       0       
0.1875          0.4375          0.3125          0       0       0       
0.3125          0.4375          0.4375          0       0       0       
0.4375          0.4375          0.5625          0       0       0       
0.5625          0.4375          0.6875          0       0       0       
0.1875          0.5625          0.4375          0       0       0       
0.3125          0.5625          0.5625          0       0       0       
0.4375          0.5625          0.6875          0       0       0       
0.5625          0.5625          0.8125          0       0       0       
0.3125          0.3125          0.0625          0       0       0       
0.4375          0.3125          0.1875          0       0       0       
0.5625          0.3125          0.3125          0       0       0       
0.6875          0.3125          0.4375          0       0       0       
0.3125          0.4375          0.1875          0       0       0       
0.4375          0.4375          0.3125          0       0       0       
0.5625          0.4375          0.4375          0       0       0       
0.6875          0.4375          0.5625          0       0       0       
0.3125          0.5625          0.3125          0       0       0       
0.4375          0.5625          0.4375          0       0       0       
0.5625          0.5625          0.5625          0       0       0       
0.6875          0.5625          0.6875          0       0       0       
0.3125          0.6875          0.4375          0       0       0       
0.4375          0.6875          0.5625          0       0       0       
0.5625          0.6875          0.6875          0       0       0       
0.6875          0.6875          0.8125          0       0       0       
0.4375          0.4375          0.0625          0       0       0       
0.5625          0.4375          0.1875          0       0       0       
0.6875          0.4375          0.3125          0       0       0       
0.8125          0.4375          0.4375          0       0       0       
0.4375          0.5625          0.1875          0       0       0       
0.5625          0.5625          0.3125          0       0       0       
0.6875          0.5625          0.4375          0       0       0       
0.8125          0.5625          0.5625          0       0       0       
0.4375          0.6875          0.3125          0       0       0       
0.5625          0.6875          0.4375          0       0       0       
0.6875          0.6875          0.5625          0       0       0       
0.8125          0.6875          0.6875          0       0       0       
0.4375          0.8125          0.4375          0       0       0       
0.5625          0.8125          0.5625          0       0       0       
0.6875          0.8125          0.6875          0       0       0       
0.8125          0.8125          0.8125          0       0       0       
0.125           0.1875          0.125           0       0       0       
0.25            0.1875          0.25            0       0       0       
0.375           0.1875          0.375           0       0       0       
0.5             0.1875          0.5             0       0       0       
0.125           0.3125          0.25            0       0       0       
0.25            0.3125          0.375           0       0       0       
0.375           0.3125          0.5             0       0       0       
0.5             0.3125          0.625           0       0       0       
0.125           0.4375          0.375           0       0       0       
0.25            0.4375          0.5             0       0       0       
0.375           0.4375          0.625           0       0       0       
0.5             0.4375          0.75            0       0       0       
0.125           0.5625          0.5             0       0       0       
0.25            0.5625          0.625           0       0       0       
0.375           0.5625          0.75            0       0       0       
0.5             0.5625          0.875           0       0       0       
0.25            0.3125          0.125           0       0       0       
0.375           0.3125          0.25            0       0       0       
0.5             0.3125          0.375           0       0       0       
0.625           0.3125          0.5             0       0       0       
0.25            0.4375          0.25            0       0       0       
0.375           0.4375          0.375           0       0       0       
0.5             0.4375          0.5             0       0       0       
0.625           0.4375          0.625           0       0       0       
0.25            0.5625          0.375           0       0       0       
0.375           0.5625          0.5             0       0       0       
0.5             0.5625          0.625           0       0       0       
0.625           0.5625          0.75            0       0       0       
0.25            0.6875          0.5             0       0       0       
0.375           0.6875          0.625           0       0       0       
0.5             0.6875          0.75            0       0       0       
0.625           0.6875          0.875           0       0       0       
0.375           0.4375          0.125           0       0       0       
0.5             0.4375          0.25            0       0       0       
0.625           0.4375          0.375           0       0       0       
0.75            0.4375          0.5             0       0       0       
0.375           0.5625          0.25            0       0       0       
0.5             0.5625          0.375           0       0       0       
0.625           0.5625          0.5             0       0       0       
0.75            0.5625          0.625           0       0       0       
0.375           0.6875          0.375           0       0       0       
0.5             0.6875          0.5             0       0       0       
0.625           0.6875          0.625           0       0       0       
0.75            0.6875          0.75            0       0       0       
0.375           0.8125          0.5             0       0       0       
0.5             0.8125          0.625           0       0       0       
0.625           0.8125          0.75            0       0       0       
0.75            0.8125          0.875           0       0       0       
0.5             0.5625          0.125           0       0       0       
0.625           0.5625          0.25            0       0       0       
0.75            0.5625          0.375           0       0       0       
0.875           0.5625          0.5             0       0       0       
0.5             0.6875          0.25            0       0       0       
0.625           0.6875          0.375           0       0       0       
0.75            0.6875          0.5             0       0       0       
0.875           0.6875          0.625           0       0       0       
0.5             0.8125          0.375           0       0       0       
0.625           0.8125          0.5             0       0       0       
0.75            0.8125          0.625           0       0       0       
0.875           0.8125          0.75            0       0       0       
0.5             0.9375          0.5             0       0       0       
0.625           0.9375          0.625           0       0       0       
0.75            0.9375          0.75            0       0       0       
0.875           0.9375          0.875           0       0       0       
0.1875          0.125           0.125           0       0       0       
0.3125          0.125           0.25            0       0       0       
0.4375          0.125           0.375           0       0       0       
0.5625          0.125           0.5             0       0       0       
0.1875          0.25            0.25            0       0       0       
0.3125          0.25            0.375           0       0       0       
0.4375          0.25            0.5             0       0       0       
0.5625          0.25            0.625           0       0       0       
0.1875          0.375           0.375           0       0       0       
0.3125          0.375           0.5             0       0       0       
0.4375          0.375           0.625           0       0       0       
0.5625          0.375           0.75            0       0       0       
0.1875          0.5             0.5             0       0       0       
0.3125          0.5             0.625           0       0       0       
0.4375          0.5             0.75            0       0       0       
0.5625          0.5             0.875           0       0       0       
0.3125          0.25            0.125           0       0       0       
0.4375          0.25            0.25            0       0       0       
0.5625          0.25            0.375           0       0       0       
0.6875          0.25            0.5             0       0       0       
0.3125          0.375           0.25            0       0       0       
0.4375          0.375           0.375           0       0       0       
0.5625          0.375           0.5             0       0       0       
0.6875          0.375           0.625           0       0       0       
0.3125          0.5             0.375           0       0       0       
0.4375          0.5             0.5             0       0       0       
0.5625          0.5             0.625           0       0       0       
0.6875          0.5             0.75            0       0       0       
0.3125          0.625           0.5             0       0       0       
0.4375          0.625           0.625           0       0       0       
0.5625          0.625           0.75            0       0       0       
0.6875          0.625           0.875           0       0       0       
0.4375          0.375           0.125           0       0       0       
0.5625          0.375           0.25            0       0       0       
0.6875          0.375           0.375           0       0       0       
0.8125          0.375           0.5             0       0       0       
0.4375          0.5             0.25            0       0       0       
0.5625          0.5             0.375           0       0       0       
0.6875          0.5             0.5             0       0       0       
0.8125          0.5             0.625           0       0       0       
0.4375          0.625           0.375           0       0       0       
0.5625          0.625           0.5             0       0       0       
0.6875          0.625           0.625           0       0       0       
0.8125          0.625           0.75            0       0       0       
0.4375          0.75            0.5             0       0       0       
0.5625          0.75            0.625           0       0       0       
0.6875          0.75            0.75            0       0       0       
0.8125          0.75            0.875           0       0       0       
0.5625          0.5             0.125           0       0       0       
0.6875          0.5             0.25            0       0       0       
0.8125          0.5             0.375           0       0       0       
0.9375          0.5             0.5             0       0       0       
0.5625          0.625           0.25            0       0       0       
0.6875          0.625           0.375           0       0       0       
0.8125          0.625           0.5             0       0       0       
0.9375          0.625           0.625           0       0       0       
0.5625          0.75            0.375           0       0       0       
0.6875          0.75            0.5             0       0       0       
0.8125          0.75            0.625           0       0       0       
0.9375          0.75            0.75            0       0       0       
0.5625          0.875           0.5             0       0       0       
0.6875          0.875           0.625           0       0       0       
0.8125          0.875           0.75            0       0       0       
0.9375          0.875           0.875           0       0       0       
0.125           0.125           0.1875          0       0       0       
0.25            0.125           0.3125          0       0       0       
0.375           0.125           0.4375          0       0       0       
0.5             0.125           0.5625          0       0       0       
0.125           0.25            0.3125          0       0       0       
0.25            0.25            0.4375          0       0       0       
0.375           0.25            0.5625          0       0       0       
0.5             0.25            0.6875          0       0       0       
0.125           0.375           0.4375          0       0       0       
0.25            0.375           0.5625          0       0       0       
0.375           0.375           0.6875          0       0       0       
0.5             0.375           0.8125          0       0       0       
0.125           0.5             0.5625          0       0       0       
0.25            0.5             0.6875          0       0       0       
0.375           0.5             0.8125          0       0       0       
0.5             0.5             0.9375          0       0       0       
0.25            0.25            0.1875          0       0       0       
0.375           0.25            0.3125          0       0       0       
0.5             0.25            0.4375          0       0       0       
0.625           0.25            0.5625          0       0       0       
0.25            0.375           0.3125          0       0       0       
0.375           0.375           0.4375          0       0       0       
0.5             0.375           0.5625          0       0       0       
0.625           0.375           0.6875          0       0       0       
0.25            0.5             0.4375          0       0       0       
0.375           0.5             0.5625          0       0       0       
0.5             0.5             0.6875          0       0       0       
0.625           0.5             0.8125          0       0       0       
0.25            0.625           0.5625          0       0       0       
0.375           0.625           0.6875          0       0       0       
0.5             0.625           0.8125          0       0       0       
0.625           0.625           0.9375          0       0       0       
0.375           0.375           0.1875          0       0       0       
0.5             0.375           0.3125          0       0       0       
0.625           0.375           0.4375          0       0       0       
0.75            0.375           0.5625          0       0       0       
0.375           0.5             0.3125          0       0       0       
0.5             0.5             0.4375          0       0       0       
0.625           0.5             0.5625          0       0       0       
0.75            0.5             0.6875          0       0       0       
0.375           0.625           0.4375          0       0       0       
0.5             0.625           0.5625          0       0       0       
0.625           0.625           0.6875          0       0       0       
0.75            0.625           0.8125          0       0       0       
0.375           0.75            0.5625          0       0       0       
0.5             0.75            0.6875          0       0       0       
0.625           0.75            0.8125          0       0       0       
0.75            0.75            0.9375          0       0       0       
0.5             0.5             0.1875          0       0       0       
0.625           0.5             0.3125          0       0       0       
0.75            0.5             0.4375          0       0       0       
0.875           0.5             0.5625          0       0       0       
0.5             0.625           0.3125          0       0       0       
0.625           0.625           0.4375          0       0       0       
0.75            0.625           0.5625          0       0       0       
0.875           0.625           0.6875          0       0       0       
0.5             0.75            0.4375          0       0       0       
0.625           0.75            0.5625          0       0       0       
0.75            0.75            0.6875          0       0       0       
0.875           0.75            0.8125          0       0       0       
0.5             0.875           0.5625          0       0       0       
0.625           0.875           0.6875          0       0       0       
0.75            0.875           0.8125          0       0       0       
0.875           0.875           0.9375          0       0       0       
