info=  1.0    1.1    1.5    2.0    3.0 
dimers_number=5
ecut=50, info_r=6, rcut_number=1
pseudo=N_ONCV_PBE-1.0.upf
smearing_sigma=0.01
--------------------------> N
make dir: 07_N
rcut=6
dis=1.0
use dimer
 *********************************************************
 *                                                       *
 *                  WELCOME TO ABACUS                    *
 *                                                       *
 *            'Atomic-orbital Based Ab-initio            *
 *                  Computation at UStc'                 *
 *                                                       *
 *********************************************************
 Tue Jul 26 17:30:00 2016
 MAKE THE DIR         : OUT.N-6-1.0/
 DONE(0.0213099  SEC) : SETUP UNITCELL
 DONE(0.021776   SEC) : INIT K-POINTS
 ---------------------------------------------------------
 This calculation is self-consistent
 ---------------------------------------------------------
 SPIN    KPOINTS         PROCESSOR   
 1       1               8           
 ---------------------------------------------------------
 Use plane wave basis
 ---------------------------------------------------------
 ELEMENT NATOM       XC          
 N       2           PBE
 ---------------------------------------------------------
 Initial plane wave basis and FFT box
 ---------------------------------------------------------
 DONE(9.3059     SEC) : INIT PLANEWAVE
 UNIFORM GRID DIM     : 96 * 96 * 96
 UNIFORM GRID DIM(BIG): 96 * 96 * 96
 MEMORY FOR PSI (MB)  : 0.72998
 DONE(9.33678    SEC) : LOCAL POTENTIAL
 DONE(9.34855    SEC) : NON-LOCAL POTENTIAL
 START POTENTIAL      : atomic
 DONE(9.60307    SEC) : INIT POTENTIAL
 DONE(9.689      SEC) : INIT BASIS
 ---------------------------------------------------------
 SELF-CONSISTENT : 
 ---------------------------------------------------------
 ITER   ETOT(eV)       EDIFF(eV)      SCF_THR      CG_ITER    TIME(S)    
 CG1    -5.396237e+02  0.000000e+00   2.910e-01  1.162e+01  1.060e+00  
 CG2    -5.399524e+02  -3.286429e-01  4.355e-02  2.375e+00  4.100e-01  
 CG3    -5.400786e+02  -1.262114e-01  4.349e-03  3.375e+00  5.000e-01  
 CG4    -5.400876e+02  -9.069593e-03  3.763e-04  3.250e+00  4.700e-01  
 CG5    -5.400880e+02  -4.037235e-04  2.537e-05  3.000e+00  4.600e-01  
 CG6    -5.400881e+02  -7.936888e-05  4.726e-06  3.625e+00  5.100e-01  
 CG7    -5.400881e+02  -1.011582e-05  2.563e-06  3.500e+00  4.800e-01  
 CG8    -5.400881e+02  -7.997523e-06  1.774e-07  2.875e+00  4.700e-01  
 CG9    -5.400881e+02  -1.267290e-07  6.832e-08  3.625e+00  5.100e-01  
 CG10   -5.400881e+02  -4.031955e-08  7.135e-09  2.000e+00  4.000e-01  
 ETOT (eV/Ry)         : -5.4008813681488e+02 / -3.9695747616228e+01
 ETOT DIFF (eV)       : 0.00000e+00
 LARGEST GRAD (eV/A)  : 0.00000e+00
 DONE(1.55101e+01 SEC) : jlq3d_overlap
 DONE(1.93340e+01 SEC) : Sq_overlap
 DONE(1.94992e+01 SEC) : BASIS OVERLAP (Q and S) GENERATION.

  |CLASS_NAME---------|NAME---------------|TIME(Sec)-----|CALLS----|AVG------|PER%-------
 A DC_Driv             divide_frag         9.3            1         9.3       48        %
 B PW_Basis            gen_pw              9.3            1         9.3       48        %
 A DC_Driv             solve_eachf         10             1         10        52        %
 B Run_Frag            frag_pw_line        10             1         10        52        %
 E potential           v_of_rho            0.92           11        0.084     4.7       %
 G Hamilt_PW           cinitcgg            0.76           11        0.069     3.9       %
 H Hamilt_PW           h_psi               3.3            402       0.0081    17        %
 C Ions                opt_ions_pw         5.4            1         5.4       28        %
 D electrons           self_consistent     5.3            1         5.3       27        %
 E electrons           c_bands             3.4            10        0.34      17        %
 F Hamilt              diago               3.4            10        0.34      17        %
 G Diago_CG            diag                2.7            10        0.27      14        %
 E Charge              mix_rho             0.21           10        0.021     1.1       %
 ----------------------------------------------------------------------------------------

 START  Time  : Tue Jul 26 17:30:00 2016
 FINISH Time  : Tue Jul 26 17:30:20 2016
 TOTAL  Time  : 20
 SEE INFORMATION IN : OUT.N-6-1.0/
dis=1.1
use dimer
 *********************************************************
 *                                                       *
 *                  WELCOME TO ABACUS                    *
 *                                                       *
 *            'Atomic-orbital Based Ab-initio            *
 *                  Computation at UStc'                 *
 *                                                       *
 *********************************************************
 Tue Jul 26 17:30:20 2016
 MAKE THE DIR         : OUT.N-6-1.1/
 DONE(0.0265729  SEC) : SETUP UNITCELL
 DONE(0.0269001  SEC) : INIT K-POINTS
 ---------------------------------------------------------
 This calculation is self-consistent
 ---------------------------------------------------------
 SPIN    KPOINTS         PROCESSOR   
 1       1               8           
 ---------------------------------------------------------
 Use plane wave basis
 ---------------------------------------------------------
 ELEMENT NATOM       XC          
 N       2           PBE
 ---------------------------------------------------------
 Initial plane wave basis and FFT box
 ---------------------------------------------------------
 DONE(9.37256    SEC) : INIT PLANEWAVE
 UNIFORM GRID DIM     : 96 * 96 * 96
 UNIFORM GRID DIM(BIG): 96 * 96 * 96
 MEMORY FOR PSI (MB)  : 0.72998
 DONE(9.40323    SEC) : LOCAL POTENTIAL
 DONE(9.4133     SEC) : NON-LOCAL POTENTIAL
 START POTENTIAL      : atomic
 DONE(10.2515    SEC) : INIT POTENTIAL
 DONE(10.332     SEC) : INIT BASIS
 ---------------------------------------------------------
 SELF-CONSISTENT : 
 ---------------------------------------------------------
 ITER   ETOT(eV)       EDIFF(eV)      SCF_THR      CG_ITER    TIME(S)    
 CG1    -5.408240e+02  0.000000e+00   1.448e-01  1.212e+01  1.410e+00  
 CG2    -5.409536e+02  -1.296477e-01  2.794e-02  2.875e+00  7.000e-01  
 CG3    -5.410147e+02  -6.105934e-02  4.701e-03  2.875e+00  7.000e-01  
 CG4    -5.410224e+02  -7.705388e-03  7.658e-04  2.625e+00  4.900e-01  
 CG5    -5.410244e+02  -2.028790e-03  4.163e-05  3.375e+00  5.100e-01  
 CG6    -5.410246e+02  -1.394935e-04  3.165e-06  3.250e+00  6.300e-01  
 CG7    -5.410246e+02  -2.151900e-07  5.601e-07  2.875e+00  5.700e-01  
 CG8    -5.410246e+02  -1.428310e-06  2.746e-08  3.625e+00  4.900e-01  
 CG9    -5.410246e+02  -1.016991e-07  1.213e-08  3.500e+00  4.900e-01  
 ETOT (eV/Ry)         : -5.4102456058006e+02 / -3.9764573496507e+01
 ETOT DIFF (eV)       : 0.00000e+00
 LARGEST GRAD (eV/A)  : 0.00000e+00
 DONE(1.69118e+01 SEC) : jlq3d_overlap
 DONE(2.08729e+01 SEC) : Sq_overlap
 DONE(2.10044e+01 SEC) : BASIS OVERLAP (Q and S) GENERATION.

  |CLASS_NAME---------|NAME---------------|TIME(Sec)-----|CALLS----|AVG------|PER%-------
 A DC_Driv             divide_frag         9.3            1         9.3       44        %
 B PW_Basis            gen_pw              9.3            1         9.3       44        %
 A DC_Driv             solve_eachf         12             1         12        55        %
 B Run_Frag            frag_pw_line        12             1         12        55        %
 E potential           v_of_rho            1              10        0.1       4.8       %
 G Hamilt_PW           cinitcgg            0.85           10        0.085     4.1       %
 H Hamilt_PW           h_psi               3.8            377       0.01      18        %
 C Ions                opt_ions_pw         6.1            1         6.1       29        %
 D electrons           self_consistent     6              1         6         29        %
 E electrons           c_bands             4              9         0.44      19        %
 F Hamilt              diago               3.9            9         0.44      19        %
 G Diago_CG            diag                3.2            9         0.35      15        %
 E Charge              mix_rho             0.22           9         0.025     1.1       %
 ----------------------------------------------------------------------------------------

 START  Time  : Tue Jul 26 17:30:20 2016
 FINISH Time  : Tue Jul 26 17:30:41 2016
 TOTAL  Time  : 21
 SEE INFORMATION IN : OUT.N-6-1.1/
dis=1.5
use dimer
 *********************************************************
 *                                                       *
 *                  WELCOME TO ABACUS                    *
 *                                                       *
 *            'Atomic-orbital Based Ab-initio            *
 *                  Computation at UStc'                 *
 *                                                       *
 *********************************************************
 Tue Jul 26 17:30:42 2016
 MAKE THE DIR         : OUT.N-6-1.5/
 DONE(0.0237868  SEC) : SETUP UNITCELL
 DONE(0.0241809  SEC) : INIT K-POINTS
 ---------------------------------------------------------
 This calculation is self-consistent
 ---------------------------------------------------------
 SPIN    KPOINTS         PROCESSOR   
 1       1               8           
 ---------------------------------------------------------
 Use plane wave basis
 ---------------------------------------------------------
 ELEMENT NATOM       XC          
 N       2           PBE
 ---------------------------------------------------------
 Initial plane wave basis and FFT box
 ---------------------------------------------------------
 DONE(9.55745    SEC) : INIT PLANEWAVE
 UNIFORM GRID DIM     : 96 * 96 * 96
 UNIFORM GRID DIM(BIG): 96 * 96 * 96
 MEMORY FOR PSI (MB)  : 0.72998
 DONE(9.58797    SEC) : LOCAL POTENTIAL
 DONE(9.59835    SEC) : NON-LOCAL POTENTIAL
 START POTENTIAL      : atomic
 DONE(9.7202     SEC) : INIT POTENTIAL
 DONE(9.802      SEC) : INIT BASIS
 ---------------------------------------------------------
 SELF-CONSISTENT : 
 ---------------------------------------------------------
 ITER   ETOT(eV)       EDIFF(eV)      SCF_THR      CG_ITER    TIME(S)    
 CG1    -5.373920e+02  0.000000e+00   2.294e-02  1.075e+01  9.500e-01  
 CG2    -5.357989e+02  1.593100e+00   8.355e-02  3.875e+00  6.400e-01  
 CG3    -5.356223e+02  1.765514e-01   6.094e-01  3.375e+00  4.700e-01  
 CG4    -5.363039e+02  -6.815100e-01  4.860e-04  3.125e+00  5.700e-01  
 CG5    -5.363055e+02  -1.617709e-03  5.535e-04  3.750e+00  5.000e-01  
 CG6    -5.363061e+02  -6.512767e-04  5.501e-06  2.250e+00  4.500e-01  
 CG7    -5.363062e+02  -4.603496e-05  4.889e-06  4.500e+00  5.500e-01  
 CG8    -5.363062e+02  -6.864540e-06  3.818e-07  2.375e+00  4.400e-01  
 CG9    -5.363062e+02  -8.005311e-07  1.297e-07  3.750e+00  5.100e-01  
 CG10   -5.363062e+02  -2.086239e-07  1.482e-09  2.625e+00  4.400e-01  
 ETOT (eV/Ry)         : -5.3630617749823e+02 / -3.9417778721348e+01
 ETOT DIFF (eV)       : 0.00000e+00
 LARGEST GRAD (eV/A)  : 0.00000e+00
 DONE(1.58982e+01 SEC) : jlq3d_overlap
 DONE(1.97467e+01 SEC) : Sq_overlap
 DONE(1.98377e+01 SEC) : BASIS OVERLAP (Q and S) GENERATION.

  |CLASS_NAME---------|NAME---------------|TIME(Sec)-----|CALLS----|AVG------|PER%-------
 A DC_Driv             divide_frag         9.5            1         9.5       48        %
 B PW_Basis            gen_pw              9.5            1         9.5       48        %
 A DC_Driv             solve_eachf         10             1         10        52        %
 B Run_Frag            frag_pw_line        10             1         10        52        %
 E potential           v_of_rho            0.95           11        0.087     4.8       %
 G Hamilt_PW           cinitcgg            0.72           11        0.066     3.6       %
 H Hamilt_PW           h_psi               3.4            411       0.0084    17        %
 C Ions                opt_ions_pw         5.7            1         5.7       29        %
 D electrons           self_consistent     5.5            1         5.5       28        %
 E electrons           c_bands             3.6            10        0.36      18        %
 F Hamilt              diago               3.6            10        0.36      18        %
 G Diago_CG            diag                2.9            10        0.29      15        %
 E Charge              mix_rho             0.22           10        0.022     1.1       %
 ----------------------------------------------------------------------------------------

 START  Time  : Tue Jul 26 17:30:42 2016
 FINISH Time  : Tue Jul 26 17:31:02 2016
 TOTAL  Time  : 20
 SEE INFORMATION IN : OUT.N-6-1.5/
dis=2.0
use dimer
 *********************************************************
 *                                                       *
 *                  WELCOME TO ABACUS                    *
 *                                                       *
 *            'Atomic-orbital Based Ab-initio            *
 *                  Computation at UStc'                 *
 *                                                       *
 *********************************************************
 Tue Jul 26 17:31:02 2016
 MAKE THE DIR         : OUT.N-6-2.0/
 DONE(0.0213213  SEC) : SETUP UNITCELL
 DONE(0.0216429  SEC) : INIT K-POINTS
 ---------------------------------------------------------
 This calculation is self-consistent
 ---------------------------------------------------------
 SPIN    KPOINTS         PROCESSOR   
 1       1               8           
 ---------------------------------------------------------
 Use plane wave basis
 ---------------------------------------------------------
 ELEMENT NATOM       XC          
 N       2           PBE
 ---------------------------------------------------------
 Initial plane wave basis and FFT box
 ---------------------------------------------------------
 DONE(9.38817    SEC) : INIT PLANEWAVE
 UNIFORM GRID DIM     : 96 * 96 * 96
 UNIFORM GRID DIM(BIG): 96 * 96 * 96
 MEMORY FOR PSI (MB)  : 0.72998
 DONE(9.41895    SEC) : LOCAL POTENTIAL
 DONE(9.42977    SEC) : NON-LOCAL POTENTIAL
 START POTENTIAL      : atomic
 DONE(9.64455    SEC) : INIT POTENTIAL
 DONE(9.7257     SEC) : INIT BASIS
 ---------------------------------------------------------
 SELF-CONSISTENT : 
 ---------------------------------------------------------
 ITER   ETOT(eV)       EDIFF(eV)      SCF_THR      CG_ITER    TIME(S)    
 CG1    -5.248050e+02  0.000000e+00   9.633e-02  1.088e+01  1.050e+00  
 CG2    -4.820883e+02  4.271668e+01   7.717e+00  3.625e+00  6.300e-01  
 CG3    -5.358588e+02  -5.377057e+01  1.561e+01  8.250e+00  9.100e-01  
 CG4    -5.205743e+02  1.528449e+01   6.765e+00  6.750e+00  7.500e-01  
 CG5    -5.292565e+02  -8.682128e+00  3.232e+00  3.625e+00  5.400e-01  
 CG6    -5.301789e+02  -9.224469e-01  8.656e-02  2.250e+00  4.300e-01  
 CG7    -5.298567e+02  3.222581e-01   7.910e-01  2.000e+00  4.100e-01  
 CG8    -5.307523e+02  -8.956448e-01  9.203e-02  2.000e+00  4.100e-01  
 CG9    -5.314889e+02  -7.365942e-01  2.283e+00  2.250e+00  4.200e-01  
 CG10   -5.306758e+02  8.130916e-01   2.112e+00  2.000e+00  4.300e-01  
 CG11   -5.309136e+02  -2.377975e-01  1.020e+00  2.000e+00  4.200e-01  
 CG12   -5.295032e+02  1.410396e+00   1.222e+00  2.000e+00  4.200e-01  
 CG13   -5.303444e+02  -8.411912e-01  1.595e-01  2.000e+00  4.100e-01  
 CG14   -5.303522e+02  -7.747210e-03  5.081e-02  2.000e+00  4.100e-01  
 CG15   -5.303687e+02  -1.658414e-02  3.964e-02  2.000e+00  4.200e-01  
 CG16   -5.303630e+02  5.779168e-03   8.888e-02  2.000e+00  4.200e-01  
 CG17   -5.303498e+02  1.317147e-02   6.817e-02  2.000e+00  4.100e-01  
 CG18   -5.303336e+02  1.621482e-02   3.806e-02  2.000e+00  4.200e-01  
 CG19   -5.303352e+02  -1.620929e-03  5.964e-03  2.000e+00  4.100e-01  
 CG20   -5.303367e+02  -1.558889e-03  1.840e-04  2.000e+00  4.100e-01  
 CG21   -5.303367e+02  3.583967e-05   8.011e-05  2.000e+00  4.300e-01  
 CG22   -5.303367e+02  -1.246364e-05  7.008e-06  2.000e+00  4.000e-01  
 CG23   -5.303367e+02  -4.753133e-06  6.114e-07  2.000e+00  4.200e-01  
 CG24   -5.303367e+02  -5.804028e-07  9.782e-09  2.000e+00  4.100e-01  
 ETOT (eV/Ry)         : -5.3033673117882e+02 / -3.8979032490220e+01
 ETOT DIFF (eV)       : 0.00000e+00
 LARGEST GRAD (eV/A)  : 0.00000e+00
 DONE(2.20998e+01 SEC) : jlq3d_overlap
 DONE(2.59641e+01 SEC) : Sq_overlap
 DONE(2.60456e+01 SEC) : BASIS OVERLAP (Q and S) GENERATION.

  |CLASS_NAME---------|NAME---------------|TIME(Sec)-----|CALLS----|AVG------|PER%-------
 A DC_Driv             divide_frag         9.4            1         9.4       36        %
 B PW_Basis            gen_pw              9.4            1         9.4       36        %
 A DC_Driv             solve_eachf         17             1         17        64        %
 B Run_Frag            frag_pw_line        17             1         17        64        %
 E potential           v_of_rho            2.3            25        0.092     8.8       %
 G Hamilt_PW           cinitcgg            1.8            25        0.071     6.8       %
 H Hamilt_PW           h_psi               6.5            773       0.0084    25        %
 I Hamilt_PW           add_vuspsi          0.18           773       0.00024   0.71      %
 C Ions                opt_ions_pw         12             1         12        46        %
 D electrons           self_consistent     12             1         12        45        %
 E electrons           c_bands             6.8            24        0.28      26        %
 F Hamilt              diago               6.8            24        0.28      26        %
 G Diago_CG            diag                5              24        0.21      19        %
 E Charge              mix_rho             0.6            24        0.025     2.3       %
 ----------------------------------------------------------------------------------------

 START  Time  : Tue Jul 26 17:31:02 2016
 FINISH Time  : Tue Jul 26 17:31:28 2016
 TOTAL  Time  : 26
 SEE INFORMATION IN : OUT.N-6-2.0/
dis=3.0
use dimer
 *********************************************************
 *                                                       *
 *                  WELCOME TO ABACUS                    *
 *                                                       *
 *            'Atomic-orbital Based Ab-initio            *
 *                  Computation at UStc'                 *
 *                                                       *
 *********************************************************
 Tue Jul 26 17:31:29 2016
 MAKE THE DIR         : OUT.N-6-3.0/
 DONE(0.0243871  SEC) : SETUP UNITCELL
 DONE(0.0247471  SEC) : INIT K-POINTS
 ---------------------------------------------------------
 This calculation is self-consistent
 ---------------------------------------------------------
 SPIN    KPOINTS         PROCESSOR   
 1       1               8           
 ---------------------------------------------------------
 Use plane wave basis
 ---------------------------------------------------------
 ELEMENT NATOM       XC          
 N       2           PBE
 ---------------------------------------------------------
 Initial plane wave basis and FFT box
 ---------------------------------------------------------
 DONE(9.30711    SEC) : INIT PLANEWAVE
 UNIFORM GRID DIM     : 96 * 96 * 96
 UNIFORM GRID DIM(BIG): 96 * 96 * 96
 MEMORY FOR PSI (MB)  : 0.72998
 DONE(9.33798    SEC) : LOCAL POTENTIAL
 DONE(9.34873    SEC) : NON-LOCAL POTENTIAL
 START POTENTIAL      : atomic
 DONE(9.57263    SEC) : INIT POTENTIAL
 DONE(9.6499     SEC) : INIT BASIS
 ---------------------------------------------------------
 SELF-CONSISTENT : 
 ---------------------------------------------------------
 ITER   ETOT(eV)       EDIFF(eV)      SCF_THR      CG_ITER    TIME(S)    
 CG1    -5.217890e+02  0.000000e+00   4.347e-01  9.750e+00  9.900e-01  
 CG2    -5.251814e+02  -3.392457e+00  1.040e+01  2.375e+00  4.100e-01  
 CG3    -5.226276e+02  2.553837e+00   3.884e+00  2.125e+00  4.400e-01  
 CG4    -5.223744e+02  2.531687e-01   7.054e+00  2.000e+00  4.600e-01  
 CG5    -5.259125e+02  -3.538060e+00  6.382e+00  2.000e+00  4.400e-01  
 CG6    -5.267728e+02  -8.602618e-01  3.236e+00  2.000e+00  4.600e-01  
 CG7    -5.248992e+02  1.873518e+00   5.806e+00  2.000e+00  4.500e-01  
 CG8    -5.260610e+02  -1.161796e+00  5.705e-01  2.000e+00  4.500e-01  
 CG9    -5.259246e+02  1.364574e-01   4.578e+00  2.000e+00  4.500e-01  
 CG10   -5.261570e+02  -2.324510e-01  2.734e+00  2.000e+00  4.600e-01  
 CG11   -5.259218e+02  2.352289e-01   3.730e+00  2.000e+00  4.400e-01  
 CG12   -5.258204e+02  1.013868e-01   2.590e+00  2.000e+00  5.900e-01  
 CG13   -5.256998e+02  1.206027e-01   1.754e+00  2.000e+00  5.800e-01  
 CG14   -5.255878e+02  1.120570e-01   5.840e-01  2.000e+00  5.300e-01  
 CG15   -5.257191e+02  -1.313892e-01  2.462e-01  2.000e+00  4.400e-01  
 CG16   -5.256785e+02  4.062084e-02   5.814e-01  2.000e+00  4.500e-01  
 CG17   -5.256614e+02  1.714989e-02   1.225e-01  2.000e+00  4.500e-01  
 CG18   -5.256759e+02  -1.448997e-02  7.088e-02  2.000e+00  4.700e-01  
 CG19   -5.256826e+02  -6.695495e-03  1.300e-03  2.000e+00  4.300e-01  
 CG20   -5.256818e+02  8.075910e-04   6.595e-03  2.000e+00  4.000e-01  
 CG21   -5.256823e+02  -5.551582e-04  4.990e-05  2.000e+00  4.100e-01  
 CG22   -5.256823e+02  1.511791e-05   2.838e-04  2.000e+00  4.500e-01  
 CG23   -5.256823e+02  5.756349e-07   5.581e-05  2.000e+00  5.100e-01  
 CG24   -5.256823e+02  -2.804413e-06  9.161e-07  2.000e+00  4.600e-01  
 CG25   -5.256823e+02  1.597542e-09   1.185e-07  2.000e+00  4.000e-01  
 CG26   -5.256823e+02  1.732180e-08   1.908e-07  2.000e+00  4.000e-01  
 CG27   -5.256823e+02  5.809060e-09   4.745e-08  2.000e+00  4.000e-01  
 CG28   -5.256823e+02  1.731107e-08   1.617e-09  2.000e+00  4.000e-01  
 ETOT (eV/Ry)         : -5.2568229293966e+02 / -3.8636937574515e+01
 ETOT DIFF (eV)       : 0.00000e+00
 LARGEST GRAD (eV/A)  : 0.00000e+00
 DONE(2.34636e+01 SEC) : jlq3d_overlap
 DONE(2.73188e+01 SEC) : Sq_overlap
 DONE(2.76935e+01 SEC) : BASIS OVERLAP (Q and S) GENERATION.

  |CLASS_NAME---------|NAME---------------|TIME(Sec)-----|CALLS----|AVG------|PER%-------
 A DC_Driv             divide_frag         9.3            1         9.3       34        %
 B PW_Basis            gen_pw              9.3            1         9.3       34        %
 A DC_Driv             solve_eachf         18             1         18        66        %
 B Run_Frag            frag_pw_line        18             1         18        66        %
 E potential           v_of_rho            2.8            29        0.096     10        %
 G Hamilt_PW           cinitcgg            2.2            29        0.075     7.8       %
 H Hamilt_PW           h_psi               6.7            746       0.0089    24        %
 I Hamilt_PW           add_vuspsi          0.18           746       0.00024   0.64      %
 C Ions                opt_ions_pw         13             1         13        48        %
 D electrons           self_consistent     13             1         13        48        %
 E electrons           c_bands             7.1            28        0.25      25        %
 F Hamilt              diago               7              28        0.25      25        %
 G Diago_CG            diag                4.9            28        0.17      18        %
 E Charge              mix_rho             0.75           28        0.027     2.7       %
 ----------------------------------------------------------------------------------------

 START  Time  : Tue Jul 26 17:31:29 2016
 FINISH Time  : Tue Jul 26 17:31:56 2016
 TOTAL  Time  : 27
 SEE INFORMATION IN : OUT.N-6-3.0/
 ***************** 
  WELCOME TO SIA! 
 ***************** 
 Generating Numerical Orbitals via minimizing spillage program start.
 Start  Time : Tue Jul 26 17:31:56 2016
 First read in the parameters from INPUT.
 
 ========================================================
 Find file: INPUT (used to generate local orbitals).
 Can't find file: INPUTs (used to generate overlap data)
 Minimize the spillage now.
 ========================================================
 FILE : ../N-6-1.0.20.dat
 FILE : ../N-6-1.1.20.dat
 FILE : ../N-6-1.5.20.dat
 FILE : ../N-6-2.0.20.dat
 FILE : ../N-6-3.0.20.dat

 Element type = 1
 Element type = 1
 KINETIC_DR=0.01

 =================================================== 
                       level = 1
 =================================================== 
 cal_nw::nw = 8 cal_nw::nw2 = 8
 Type=7 Readin_Orbital=8 Generate_Orbital=8
 Total Localized Orbitals in this Level = 8
 iw = 8 iw2 = 8

 Initial Spillage Value at this Level: 
 Structure  1   34.7753%
 Structure  2   35.4627%
 Structure  3   37.6217%
 Structure  4   38.8022%
 Structure  5   36.3372%

 STEP      TEMP            SPILLAGE
    1 1.000e-04       0.8820845260%
    2 8.000e-05       0.8488237172%
    3 6.400e-05       0.8499142243%
    4 5.120e-05       0.7841430472%
    5 4.096e-05       0.7987093488%
    6 3.277e-05       0.7951513327%
    7 2.621e-05       0.7701521884%
    8 2.097e-05       0.7724990977%
    9 1.678e-05       0.7686759235%
   10 1.342e-05       0.7645926543%
   11 1.074e-05       0.7652276973%
   12 8.590e-06       0.7588817669%
   13 6.872e-06       0.7578598519%
   14 5.498e-06       0.7530891698%
   15 4.398e-06       0.7540550197%
   16 3.518e-06       0.7525183432%
   17 2.815e-06       0.7522383060%
   18 2.252e-06       0.7507557538%
   19 1.801e-06       0.7511738967%
   20 1.441e-06       0.7497857572%
    1 1.153e-06       0.7558554621%
    s 1.744e-01       10.8257525053
    p 1.744e-01       17.0305132293
    2 1.153e-06       0.7566292568%
    s 1.395e-01       10.6684693305
    p 1.395e-01       16.8736699255
    3 1.153e-06       0.7562333742%
    s 1.116e-01       10.5278331918
    p 1.116e-01       16.9951718473
    4 1.153e-06       0.7571317884%
    s 8.927e-02       10.6356572842
    p 8.927e-02       16.8082588090
    5 1.153e-06       0.7559422575%
    s 7.142e-02       10.4417053476
    p 7.142e-02       16.7449140142
    6 1.153e-06       0.7567223632%
    s 5.713e-02       10.6244395047
    p 5.713e-02       16.8087019975
    7 1.153e-06       0.7571622664%
    s 4.571e-02       10.5139028245
    p 4.571e-02       16.7127552406
    8 1.153e-06       0.7560802310%
    s 3.656e-02       10.5977698803
    p 3.656e-02       16.6908389631
    9 1.153e-06       0.7561221048%
    s 2.925e-02       10.3940040575
    p 2.925e-02       16.7415111614
   10 1.153e-06       0.7569611731%
    s 2.340e-02       10.3077792638
    p 2.340e-02       16.6539164134
   11 1.153e-06       0.7572486367%
    s 1.872e-02       10.3481684400
    p 1.872e-02       16.6079127259
   12 1.153e-06       0.7567807488%
    s 1.498e-02       10.3569430117
    p 1.498e-02       16.5805628422
   13 1.153e-06       0.7569712048%
    s 1.198e-02       10.4060941596
    p 1.198e-02       16.4791892890
   14 1.153e-06       0.7572832983%
    s 9.585e-03       10.3280780471
    p 9.585e-03       16.5638677917
   15 1.153e-06       0.7570465851%
    s 7.668e-03       10.3209567214
    p 7.668e-03       16.5112687771


 =================================================== 
                       level = 2
 =================================================== 
 cal_nw::nw = 18 cal_nw::nw2 = 18
 Type=7 Readin_Orbital=18 Generate_Orbital=18
 Total Localized Orbitals in this Level = 18
 iw = 18 iw2 = 18

 Orthogonal.......

 Initial Spillage Value at this Level: 
 Structure  1  0.699303%
 Structure  2  0.572859%
 Structure  3  0.293499%
 Structure  4  0.226352%
 Structure  5  0.337506%

 STEP      TEMP            SPILLAGE
    1 8.000e-05       0.1964188283%
    2 6.400e-05       0.1505322257%
    3 5.120e-05       0.1389506018%
    4 4.096e-05       0.1364714405%
    5 3.277e-05       0.1416539175%
    6 2.621e-05       0.1098106130%
    7 2.097e-05       0.1343913187%
    8 1.678e-05       0.1125696233%
    9 1.342e-05       0.1077324387%
   10 1.074e-05       0.1059876643%
   11 8.590e-06       0.0943067800%
   12 6.872e-06       0.0937068422%
   13 5.498e-06       0.0908196195%
   14 4.398e-06       0.0920973845%
   15 3.518e-06       0.0900556085%
   16 2.815e-06       0.0888184607%
   17 2.252e-06       0.0870793045%
   18 1.801e-06       0.0864144297%
   19 1.441e-06       0.0864191995%
   20 1.153e-06       0.0857546729%
    1 9.223e-07       0.0865288722%
    s 3.264e-01       28.9858403254
    p 3.264e-01       15.6000277930
    d 3.264e-01        8.2046155351
    2 9.223e-07       0.0866071026%
    s 2.611e-01       29.4198208207
    p 2.611e-01       16.3935191274
    d 2.611e-01        7.0509153306
    3 9.223e-07       0.0865711819%
    s 2.089e-01       30.0097402943
    p 2.089e-01       14.4762749220
    d 2.089e-01        7.9088449192
    4 9.223e-07       0.0865725502%
    s 1.671e-01       26.9873650021
    p 1.671e-01       16.1878209017
    d 1.671e-01        7.4031345918
    5 9.223e-07       0.0865994975%
    s 1.337e-01       28.3451905977
    p 1.337e-01       14.4923950136
    d 1.337e-01        7.1445444076
    6 9.223e-07       0.0865778480%
    s 1.070e-01       26.5125906525
    p 1.070e-01       15.3683350241
    d 1.070e-01        7.4539906757
    7 9.223e-07       0.0866064437%
    s 8.557e-02       26.4037418693
    p 8.557e-02       15.9016999841
    d 8.557e-02        7.0526690994
    8 9.223e-07       0.0865998875%
    s 6.846e-02       26.9237047110
    p 6.846e-02       14.7401234948
    d 6.846e-02        7.2346471469
    9 9.223e-07       0.0865739446%
    s 5.477e-02       26.8724469620
    p 5.477e-02       14.6337824172
    d 5.477e-02        7.1381509420
   10 9.223e-07       0.0865838236%
    s 4.381e-02       25.7914951217
    p 4.381e-02       15.7271037261
    d 4.381e-02        7.0997081781
   11 9.223e-07       0.0866102680%
    s 3.505e-02       26.9910046665
    p 3.505e-02       14.2307919253
    d 3.505e-02        7.0949048275
   12 9.223e-07       0.0865970491%
    s 2.804e-02       25.3596211051
    p 2.804e-02       15.7630866555
    d 2.804e-02        7.2738304914
   13 9.223e-07       0.0866115036%
    s 2.243e-02       25.9133841670
    p 2.243e-02       15.0704290452
    d 2.243e-02        7.1471832573
   14 9.223e-07       0.0866106484%
    s 1.795e-02       25.7365840018
    p 1.795e-02       15.3563431337
    d 1.795e-02        7.0433783737
   15 9.223e-07       0.0866117537%
    s 1.436e-02       25.9372573706
    p 1.436e-02       14.8910374500
    d 1.436e-02        7.1841753237

--------- CLASS NAME--------------- NAME ----- TIME(sec) -- CALLS ----- AVG ----- PER%
                                   total         290.28         1   2.9e+02     1e+02%
          Metropolis      move_various_t        2.9e+02         2   1.4e+02     1e+02%
            ReadData        OverlapSq1q2           0.21         5     0.042     0.072%
--------------------------------------------------------------------------------------

 Start  Time : Tue Jul 26 17:31:56 2016
 Finish Time : Tue Jul 26 17:36:47 2016
 Total  Time : 291 Seconds
