<PP_INFO>
Generated using ld1 code (maybe, or maybe not)                                  
Author: unknown    Generation date: as well                                     
Info: automatically converted from PWSCF format                                 
    1        The Pseudo was generated with a Scalar-Relativistic Calculation
nl pn  l   occ               Rcut            Rcut US             E pseu
*S  0  0  0.10      0.00000000000      0.00000000000      0.00000000000
*P  0  1  0.10      0.00000000000      0.00000000000      0.00000000000
*D  0  2  9.80      0.00000000000      0.00000000000      0.00000000000
</PP_INFO>


<PP_HEADER>
   0                   Version Number
  Cu                   Element
   NC                  Norm - Conserving pseudopotential
    F                  Nonlinear Core Correction
SLA  PZ   NOGX NOGC    PZ   Exchange-Correlation functional
   11.00000000000      Z valence
    0.00000000000      Total energy
  0.0000000  0.0000000 Suggested cutoff for wfc and rho
    2                  Max angular momentum component
 1163                  Number of points in mesh
    3    2             Number of Wavefunctions, Number of Projectors
 Wavefunctions         nl  l   occ
                       *S  0  0.10
                       *P  1  0.10
                       *D  2  9.80
</PP_HEADER>


<PP_MESH>
  <PP_R>
  3.25487422703E-05  3.29746382456E-05  3.34061070133E-05  3.38432214926E-05
  3.42860555568E-05  3.47346840461E-05  3.51891827796E-05  3.56496285688E-05
  3.61160992300E-05  3.65886735980E-05  3.70674315389E-05  3.75524539640E-05
  3.80438228431E-05  3.85416212189E-05  3.90459332204E-05  3.95568440775E-05
  4.00744401354E-05  4.05988088691E-05  4.11300388981E-05  4.16682200016E-05
  4.22134431334E-05  4.27658004376E-05  4.33253852639E-05  4.38922921834E-05
  4.44666170047E-05  4.50484567902E-05  4.56379098720E-05  4.62350758693E-05
  4.68400557044E-05  4.74529516204E-05  4.80738671982E-05  4.87029073740E-05
  4.93401784570E-05  4.99857881476E-05  5.06398455554E-05  5.13024612176E-05
  5.19737471179E-05  5.26538167051E-05  5.33427849127E-05  5.40407681779E-05
  5.47478844615E-05  5.54642532679E-05  5.61899956651E-05  5.69252343054E-05
  5.76700934457E-05  5.84246989691E-05  5.91891784056E-05  5.99636609542E-05
  6.07482775042E-05  6.15431606576E-05  6.23484447518E-05  6.31642658814E-05
  6.39907619224E-05  6.48280725544E-05  6.56763392849E-05  6.65357054732E-05
  6.74063163540E-05  6.82883190627E-05  6.91818626598E-05  7.00870981564E-05
  7.10041785394E-05  7.19332587976E-05  7.28744959478E-05  7.38280490611E-05
  7.47940792905E-05  7.57727498974E-05  7.67642262792E-05  7.77686759981E-05
  7.87862688083E-05  7.98171766854E-05  8.08615738554E-05  8.19196368238E-05
  8.29915444058E-05  8.40774777563E-05  8.51776204007E-05  8.62921582657E-05
  8.74212797108E-05  8.85651755602E-05  8.97240391351E-05  9.08980662862E-05
  9.20874554268E-05  9.32924075666E-05  9.45131263452E-05  9.57498180672E-05
  9.70026917364E-05  9.82719590913E-05  9.95578346412E-05  1.00860535702E-04
  1.02180282434E-04  1.03517297876E-04  1.04871807988E-04  1.06244041685E-04
  1.07634230879E-04  1.09042610513E-04  1.10469418608E-04  1.11914896298E-04
  1.13379287872E-04  1.14862840815E-04  1.16365805851E-04  1.17888436986E-04
  1.19430991548E-04  1.20993730231E-04  1.22576917142E-04  1.24180819844E-04
  1.25805709400E-04  1.27451860421E-04  1.29119551109E-04  1.30809063309E-04
  1.32520682552E-04  1.34254698106E-04  1.36011403023E-04  1.37791094191E-04
  1.39594072382E-04  1.41420642303E-04  1.43271112650E-04  1.45145796155E-04
  1.47045009646E-04  1.48969074093E-04  1.50918314668E-04  1.52893060798E-04
  1.54893646218E-04  1.56920409034E-04  1.58973691772E-04  1.61053841443E-04
  1.63161209596E-04  1.65296152382E-04  1.67459030611E-04  1.69650209814E-04
  1.71870060307E-04  1.74118957250E-04  1.76397280710E-04  1.78705415731E-04
  1.81043752392E-04  1.83412685878E-04  1.85812616545E-04  1.88243949987E-04
  1.90707097103E-04  1.93202474174E-04  1.95730502922E-04  1.98291610591E-04
  2.00886230014E-04  2.03514799688E-04  2.06177763848E-04  2.08875572540E-04
  2.11608681702E-04  2.14377553234E-04  2.17182655083E-04  2.20024461317E-04
  2.22903452210E-04  2.25820114316E-04  2.28774940559E-04  2.31768430311E-04
  2.34801089480E-04  2.37873430592E-04  2.40985972880E-04  2.44139242370E-04
  2.47333771974E-04  2.50570101574E-04  2.53848778117E-04  2.57170355709E-04
  2.60535395702E-04  2.63944466797E-04  2.67398145136E-04  2.70897014397E-04
  2.74441665898E-04  2.78032698695E-04  2.81670719679E-04  2.85356343685E-04
  2.89090193592E-04  2.92872900431E-04  2.96705103486E-04  3.00587450410E-04
  3.04520597329E-04  3.08505208953E-04  3.12541958692E-04  3.16631528766E-04
  3.20774610322E-04  3.24971903550E-04  3.29224117804E-04  3.33531971717E-04
  3.37896193327E-04  3.42317520198E-04  3.46796699545E-04  3.51334488359E-04
  3.55931653538E-04  3.60588972014E-04  3.65307230884E-04  3.70087227546E-04
  3.74929769830E-04  3.79835676137E-04  3.84805775578E-04  3.89840908111E-04
  3.94941924685E-04  4.00109687384E-04  4.05345069573E-04  4.10648956043E-04
  4.16022243165E-04  4.21465839035E-04  4.26980663636E-04  4.32567648985E-04
  4.38227739296E-04  4.43961891138E-04  4.49771073596E-04  4.55656268436E-04
  4.61618470271E-04  4.67658686725E-04  4.73777938610E-04  4.79977260095E-04
  4.86257698879E-04  4.92620316372E-04  4.99066187870E-04  5.05596402742E-04
  5.12212064610E-04  5.18914291535E-04  5.25704216211E-04  5.32582986151E-04
  5.39551763883E-04  5.46611727147E-04  5.53764069094E-04  5.61009998486E-04
  5.68350739904E-04  5.75787533950E-04  5.83321637459E-04  5.90954323713E-04
  5.98686882655E-04  6.06520621104E-04  6.14456862982E-04  6.22496949533E-04
  6.30642239549E-04  6.38894109605E-04  6.47253954286E-04  6.55723186426E-04
  6.64303237345E-04  6.72995557093E-04  6.81801614691E-04  6.90722898385E-04
  6.99760915893E-04  7.08917194661E-04  7.18193282122E-04  7.27590745957E-04
  7.37111174360E-04  7.46756176306E-04  7.56527381823E-04  7.66426442269E-04
  7.76455030607E-04  7.86614841693E-04  7.96907592560E-04  8.07335022707E-04
  8.17898894394E-04  8.28600992941E-04  8.39443127027E-04  8.50427129001E-04
  8.61554855183E-04  8.72828186186E-04  8.84249027230E-04  8.95819308465E-04
  9.07540985294E-04  9.19416038710E-04  9.31446475625E-04  9.43634329212E-04
  9.55981659246E-04  9.68490552455E-04  9.81163122873E-04  9.94001512194E-04
  1.00700789014E-03  1.02018445481E-03  1.03353343308E-03  1.04705708097E-03
  1.06075768399E-03  1.07463755759E-03  1.08869904749E-03  1.10294453012E-03
  1.11737641300E-03  1.13199713515E-03  1.14680916752E-03  1.16181501336E-03
  1.17701720871E-03  1.19241832277E-03  1.20802095836E-03  1.22382775237E-03
  1.23984137618E-03  1.25606453613E-03  1.27249997398E-03  1.28915046736E-03
  1.30601883023E-03  1.32310791339E-03  1.34042060494E-03  1.35795983076E-03
  1.37572855503E-03  1.39372978069E-03  1.41196655001E-03  1.43044194503E-03
  1.44915908815E-03  1.46812114260E-03  1.48733131302E-03  1.50679284597E-03
  1.52650903050E-03  1.54648319869E-03  1.56671872622E-03  1.58721903294E-03
  1.60798758346E-03  1.62902788770E-03  1.65034350154E-03  1.67193802735E-03
  1.69381511468E-03  1.71597846078E-03  1.73843181133E-03  1.76117896100E-03
  1.78422375410E-03  1.80757008526E-03  1.83122190007E-03  1.85518319574E-03
  1.87945802179E-03  1.90405048071E-03  1.92896472870E-03  1.95420497631E-03
  1.97977548922E-03  2.00568058890E-03  2.03192465337E-03  2.05851211795E-03
  2.08544747597E-03  2.11273527958E-03  2.14038014048E-03  2.16838673072E-03
  2.19675978347E-03  2.22550409386E-03  2.25462451974E-03  2.28412598252E-03
  2.31401346804E-03  2.34429202734E-03  2.37496677757E-03  2.40604290283E-03
  2.43752565508E-03  2.46942035496E-03  2.50173239276E-03  2.53446722929E-03
  2.56763039682E-03  2.60122749999E-03  2.63526421680E-03  2.66974629953E-03
  2.70467957575E-03  2.74006994925E-03  2.77592340109E-03  2.81224599059E-03
  2.84904385636E-03  2.88632321732E-03  2.92409037378E-03  2.96235170847E-03
  3.00111368765E-03  3.04038286218E-03  3.08016586866E-03  3.12046943050E-03
  3.16130035909E-03  3.20266555498E-03  3.24457200896E-03  3.28702680334E-03
  3.33003711307E-03  3.37361020700E-03  3.41775344908E-03  3.46247429963E-03
  3.50778031657E-03  3.55367915674E-03  3.60017857715E-03  3.64728643630E-03
  3.69501069555E-03  3.74335942039E-03  3.79234078189E-03  3.84196305800E-03
  3.89223463502E-03  3.94316400895E-03  3.99475978698E-03  4.04703068893E-03
  4.09998554870E-03  4.15363331578E-03  4.20798305678E-03  4.26304395693E-03
  4.31882532165E-03  4.37533657814E-03  4.43258727691E-03  4.49058709349E-03
  4.54934582998E-03  4.60887341674E-03  4.66917991408E-03  4.73027551393E-03
  4.79217054161E-03  4.85487545751E-03  4.91840085892E-03  4.98275748178E-03
  5.04795620251E-03  5.11400803986E-03  5.18092415674E-03  5.24871586213E-03
  5.31739461300E-03  5.38697201621E-03  5.45745983051E-03  5.52886996852E-03
  5.60121449870E-03  5.67450564747E-03  5.74875580120E-03  5.82397750835E-03
  5.90018348155E-03  5.97738659980E-03  6.05559991062E-03  6.13483663223E-03
  6.21511015584E-03  6.29643404786E-03  6.37882205221E-03  6.46228809268E-03
  6.54684627521E-03  6.63251089035E-03  6.71929641561E-03  6.80721751796E-03
  6.89628905627E-03  6.98652608385E-03  7.07794385096E-03  7.17055780743E-03
  7.26438360524E-03  7.35943710116E-03  7.45573435947E-03  7.55329165464E-03
  7.65212547407E-03  7.75225252092E-03  7.85368971689E-03  7.95645420512E-03
  8.06056335305E-03  8.16603475537E-03  8.27288623700E-03  8.38113585610E-03
  8.49080190710E-03  8.60190292383E-03  8.71445768263E-03  8.82848520552E-03
  8.94400476342E-03  9.06103587942E-03  9.17959833204E-03  9.29971215863E-03
  9.42139765871E-03  9.54467539742E-03  9.66956620899E-03  9.79609120026E-03
  9.92427175426E-03  1.00541295338E-02  1.01856864852E-02  1.03189648418E-02
  1.04539871280E-02  1.05907761630E-02  1.07293550643E-02  1.08697472522E-02
  1.10119764532E-02  1.11560667045E-02  1.13020423576E-02  1.14499280827E-02
  1.15997488730E-02  1.17515300484E-02  1.19052972603E-02  1.20610764959E-02
  1.22188940820E-02  1.23787766904E-02  1.25407513414E-02  1.27048454093E-02
  1.28710866263E-02  1.30395030876E-02  1.32101232560E-02  1.33829759666E-02
  1.35580904320E-02  1.37354962469E-02  1.39152233935E-02  1.40973022458E-02
  1.42817635759E-02  1.44686385579E-02  1.46579587743E-02  1.48497562206E-02
  1.50440633111E-02  1.52409128841E-02  1.54403382076E-02  1.56423729851E-02
  1.58470513608E-02  1.60544079259E-02  1.62644777241E-02  1.64772962578E-02
  1.66928994938E-02  1.69113238695E-02  1.71326062992E-02  1.73567841802E-02
  1.75838953990E-02  1.78139783379E-02  1.80470718816E-02  1.82832154234E-02
  1.85224488722E-02  1.87648126588E-02  1.90103477435E-02  1.92590956222E-02
  1.95110983339E-02  1.97663984676E-02  2.00250391698E-02  2.02870641512E-02
  2.05525176947E-02  2.08214446627E-02  2.10938905043E-02  2.13699012637E-02
  2.16495235872E-02  2.19328047317E-02  2.22197925725E-02  2.25105356110E-02
  2.28050829837E-02  2.31034844697E-02  2.34057904995E-02  2.37120521637E-02
  2.40223212210E-02  2.43366501079E-02  2.46550919465E-02  2.49777005544E-02
  2.53045304531E-02  2.56356368777E-02  2.59710757859E-02  2.63109038678E-02
  2.66551785550E-02  2.70039580308E-02  2.73573012399E-02  2.77152678979E-02
  2.80779185022E-02  2.84453143415E-02  2.88175175067E-02  2.91945909009E-02
  2.95765982505E-02  2.99636041156E-02  3.03556739010E-02  3.07528738676E-02
  3.11552711431E-02  3.15629337336E-02  3.19759305350E-02  3.23943313447E-02
  3.28182068736E-02  3.32476287575E-02  3.36826695698E-02  3.41234028335E-02
  3.45699030334E-02  3.50222456293E-02  3.54805070680E-02  3.59447647968E-02
  3.64150972765E-02  3.68915839942E-02  3.73743054775E-02  3.78633433073E-02
  3.83587801323E-02  3.88606996824E-02  3.93691867833E-02  3.98843273704E-02
  4.04062085038E-02  4.09349183825E-02  4.14705463600E-02  4.20131829584E-02
  4.25629198848E-02  4.31198500459E-02  4.36840675644E-02  4.42556677942E-02
  4.48347473372E-02  4.54214040592E-02  4.60157371066E-02  4.66178469231E-02
  4.72278352667E-02  4.78458052269E-02  4.84718612420E-02  4.91061091170E-02
  4.97486560414E-02  5.03996106070E-02  5.10590828268E-02  5.17271841531E-02
  5.24040274966E-02  5.30897272455E-02  5.37843992847E-02  5.44881610154E-02
  5.52011313749E-02  5.59234308571E-02  5.66551815322E-02  5.73965070677E-02
  5.81475327496E-02  5.89083855030E-02  5.96791939137E-02  6.04600882502E-02
  6.12512004855E-02  6.20526643195E-02  6.28646152014E-02  6.36871903529E-02
  6.45205287912E-02  6.53647713524E-02  6.62200607156E-02  6.70865414266E-02
  6.79643599228E-02  6.88536645576E-02  6.97546056256E-02  7.06673353879E-02
  7.15920080981E-02  7.25287800281E-02  7.34778094946E-02  7.44392568857E-02
  7.54132846884E-02  7.64000575157E-02  7.73997421346E-02  7.84125074941E-02
  7.94385247540E-02  8.04779673137E-02  8.15310108414E-02  8.25978333039E-02
  8.36786149969E-02  8.47735385750E-02  8.58827890829E-02  8.70065539865E-02
  8.81450232049E-02  8.92983891419E-02  9.04668467193E-02  9.16505934091E-02
  9.28498292673E-02  9.40647569676E-02  9.52955818358E-02  9.65425118841E-02
  9.78057578467E-02  9.90855332151E-02  1.00382054275E-01  1.01695540140E-01
  1.03026212794E-01  1.04374297123E-01  1.05740020956E-01  1.07123615105E-01
  1.08525313400E-01  1.09945352731E-01  1.11383973088E-01  1.12841417602E-01
  1.14317932584E-01  1.15813767569E-01  1.17329175356E-01  1.18864412053E-01
  1.20419737119E-01  1.21995413406E-01  1.23591707209E-01  1.25208888305E-01
  1.26847230000E-01  1.28507009180E-01  1.30188506350E-01  1.31892005687E-01
  1.33617795088E-01  1.35366166213E-01  1.37137414543E-01  1.38931839422E-01
  1.40749744113E-01  1.42591435846E-01  1.44457225871E-01  1.46347429510E-01
  1.48262366214E-01  1.50202359610E-01  1.52167737563E-01  1.54158832225E-01
  1.56175980097E-01  1.58219522082E-01  1.60289803542E-01  1.62387174360E-01
  1.64511988998E-01  1.66664606553E-01  1.68845390823E-01  1.71054710367E-01
  1.73292938563E-01  1.75560453678E-01  1.77857638928E-01  1.80184882543E-01
  1.82542577831E-01  1.84931123250E-01  1.87350922468E-01  1.89802384438E-01
  1.92285923463E-01  1.94801959267E-01  1.97350917065E-01  1.99933227638E-01
  2.02549327403E-01  2.05199658486E-01  2.07884668799E-01  2.10604812117E-01
  2.13360548149E-01  2.16152342621E-01  2.18980667354E-01  2.21846000340E-01
  2.24748825829E-01  2.27689634404E-01  2.30668923070E-01  2.33687195332E-01
  2.36744961287E-01  2.39842737703E-01  2.42981048113E-01  2.46160422899E-01
  2.49381399382E-01  2.52644521915E-01  2.55950341973E-01  2.59299418248E-01
  2.62692316743E-01  2.66129610864E-01  2.69611881522E-01  2.73139717231E-01
  2.76713714201E-01  2.80334476448E-01  2.84002615889E-01  2.87718752448E-01
  2.91483514160E-01  2.95297537281E-01  2.99161466388E-01  3.03075954495E-01
  3.07041663159E-01  3.11059262596E-01  3.15129431788E-01  3.19252858604E-01
  3.23430239913E-01  3.27662281702E-01  3.31949699197E-01  3.36293216981E-01
  3.40693569119E-01  3.45151499282E-01  3.49667760869E-01  3.54243117140E-01
  3.58878341341E-01  3.63574216836E-01  3.68331537238E-01  3.73151106547E-01
  3.78033739282E-01  3.82980260618E-01  3.87991506529E-01  3.93068323929E-01
  3.98211570811E-01  4.03422116396E-01  4.08700841279E-01  4.14048637577E-01
  4.19466409081E-01  4.24955071405E-01  4.30515552148E-01  4.36148791045E-01
  4.41855740125E-01  4.47637363876E-01  4.53494639408E-01  4.59428556613E-01
  4.65440118338E-01  4.71530340550E-01  4.77700252512E-01  4.83950896954E-01
  4.90283330249E-01  4.96698622594E-01  5.03197858189E-01  5.09782135419E-01
  5.16452567043E-01  5.23210280381E-01  5.30056417501E-01  5.36992135417E-01
  5.44018606282E-01  5.51137017587E-01  5.58348572359E-01  5.65654489369E-01
  5.73056003334E-01  5.80554365127E-01  5.88150841990E-01  5.95846717745E-01
  6.03643293013E-01  6.11541885435E-01  6.19543829891E-01  6.27650478729E-01
  6.35863201991E-01  6.44183387648E-01  6.52612441831E-01  6.61151789070E-01
  6.69802872534E-01  6.78567154279E-01  6.87446115487E-01  6.96441256725E-01
  7.05554098193E-01  7.14786179983E-01  7.24139062339E-01  7.33614325920E-01
  7.43213572068E-01  7.52938423078E-01  7.62790522474E-01  7.72771535284E-01
  7.82883148323E-01  7.93127070477E-01  8.03505032994E-01  8.14018789773E-01
  8.24670117666E-01  8.35460816771E-01  8.46392710743E-01  8.57467647097E-01
  8.68687497525E-01  8.80054158207E-01  8.91569550137E-01  9.03235619442E-01
  9.15054337717E-01  9.27027702353E-01  9.39157736878E-01  9.51446491294E-01
  9.63896042433E-01  9.76508494297E-01  9.89285978421E-01  1.00223065423E+00
  1.01534470940E+00  1.02863036025E+00  1.04208985208E+00  1.05572545957E+00
  1.06953948718E+00  1.08353426950E+00  1.09771217170E+00  1.11207558986E+00
  1.12662695145E+00  1.14136871567E+00  1.15630337393E+00  1.17143345020E+00
  1.18676150152E+00  1.20229011835E+00  1.21802192508E+00  1.23395958041E+00
  1.25010577785E+00  1.26646324614E+00  1.28303474973E+00  1.29982308925E+00
  1.31683110196E+00  1.33406166227E+00  1.35151768217E+00  1.36920211177E+00
  1.38711793979E+00  1.40526819405E+00  1.42365594197E+00  1.44228429114E+00
  1.46115638978E+00  1.48027542734E+00  1.49964463496E+00  1.51926728609E+00
  1.53914669702E+00  1.55928622740E+00  1.57968928086E+00  1.60035930557E+00
  1.62129979481E+00  1.64251428757E+00  1.66400636916E+00  1.68577967179E+00
  1.70783787519E+00  1.73018470726E+00  1.75282394466E+00  1.77575941348E+00
  1.79899498987E+00  1.82253460070E+00  1.84638222421E+00  1.87054189070E+00
  1.89501768324E+00  1.91981373827E+00  1.94493424639E+00  1.97038345302E+00
  1.99616565915E+00  2.02228522203E+00  2.04874655593E+00  2.07555413286E+00
  2.10271248339E+00  2.13022619733E+00  2.15809992457E+00  2.18633837583E+00
  2.21494632348E+00  2.24392860234E+00  2.27329011046E+00  2.30303581003E+00
  2.33317072813E+00  2.36369995763E+00  2.39462865806E+00  2.42596205642E+00
  2.45770544815E+00  2.48986419795E+00  2.52244374072E+00  2.55544958249E+00
  2.58888730133E+00  2.62276254827E+00  2.65708104833E+00  2.69184860142E+00
  2.72707108332E+00  2.76275444672E+00  2.79890472221E+00  2.83552801925E+00
  2.87263052728E+00  2.91021851670E+00  2.94829833998E+00  2.98687643269E+00
  3.02595931464E+00  3.06555359090E+00  3.10566595303E+00  3.14630318009E+00
  3.18747213987E+00  3.22917979003E+00  3.27143317927E+00  3.31423944849E+00
  3.35760583208E+00  3.40153965904E+00  3.44604835429E+00  3.49113943992E+00
  3.53682053643E+00  3.58309936403E+00  3.62998374394E+00  3.67748159975E+00
  3.72560095870E+00  3.77434995308E+00  3.82373682159E+00  3.87376991071E+00
  3.92445767618E+00  3.97580868433E+00  4.02783161361E+00  4.08053525602E+00
  4.13392851861E+00  4.18802042495E+00  4.24282011671E+00  4.29833685517E+00
  4.35458002278E+00  4.41155912479E+00  4.46928379079E+00  4.52776377638E+00
  4.58700896483E+00  4.64702936872E+00  4.70783513162E+00  4.76943652987E+00
  4.83184397425E+00  4.89506801175E+00  4.95911932741E+00  5.02400874603E+00
  5.08974723408E+00  5.15634590154E+00  5.22381600372E+00  5.29216894324E+00
  5.36141627191E+00  5.43156969269E+00  5.50264106167E+00  5.57464239009E+00
  5.64758584634E+00  5.72148375805E+00  5.79634861412E+00  5.87219306691E+00
  5.94902993430E+00  6.02687220191E+00  6.10573302527E+00  6.18562573204E+00
  6.26656382428E+00  6.34856098072E+00  6.43163105908E+00  6.51578809839E+00
  6.60104632141E+00  6.68742013696E+00  6.77492414243E+00  6.86357312620E+00
  6.95338207018E+00  7.04436615227E+00  7.13654074900E+00  7.22992143811E+00
  7.32452400115E+00  7.42036442618E+00  7.51745891046E+00  7.61582386318E+00
  7.71547590827E+00  7.81643188715E+00  7.91870886162E+00  8.02232411673E+00
  8.12729516372E+00  8.23363974293E+00  8.34137582685E+00  8.45052162314E+00
  8.56109557770E+00  8.67311637779E+00  8.78660295519E+00  8.90157448941E+00
  9.01805041089E+00  9.13605040436E+00  9.25559441210E+00  9.37670263732E+00
  9.49939554760E+00  9.62369387834E+00  9.74961863625E+00  9.87719110291E+00
  1.00064328384E+01  1.01373656848E+01  1.02700117702E+01  1.04043935120E+01
  1.05405336210E+01  1.06784551054E+01  1.08181812740E+01  1.09597357411E+01
  1.11031424295E+01  1.12484255755E+01  1.13956097322E+01  1.15447197740E+01
  1.16957809010E+01  1.18488186427E+01  1.20038588630E+01  1.21609277641E+01
  1.23200518908E+01  1.24812581357E+01  1.26445737429E+01  1.28100263131E+01
  1.29776438083E+01  1.31474545562E+01  1.33194872552E+01  1.34937709792E+01
  1.36703351826E+01  1.38492097053E+01  1.40304247773E+01  1.42140110245E+01
  1.43999994734E+01  1.45884215565E+01  1.47793091176E+01  1.49726944170E+01
  1.51686101375E+01  1.53670893892E+01  1.55681657155E+01  1.57718730990E+01
  1.59782459665E+01  1.61873191956E+01  1.63991281202E+01  1.66137085365E+01
  1.68310967090E+01  1.70513293770E+01  1.72744437602E+01  1.75004775655E+01
  1.77294689932E+01  1.79614567433E+01  1.81964800224E+01  1.84345785499E+01
  1.86757925650E+01  1.89201628336E+01  1.91677306547E+01  1.94185378679E+01
  1.96726268602E+01  1.99300405733E+01  2.01908225107E+01  2.04550167451E+01
  2.07226679261E+01  2.09938212872E+01  2.12685226542E+01  2.15468184520E+01
  2.18287557135E+01  2.21143820866E+01  2.24037458430E+01  2.26968958857E+01
  2.29938817578E+01  2.32947536507E+01  2.35995624124E+01  2.39083595563E+01
  2.42211972699E+01  2.45381284235E+01  2.48592065792E+01  2.51844859999E+01
  2.55140216588E+01  2.58478692480E+01  2.61860851886E+01  2.65287266400E+01
  2.68758515093E+01  2.72275184615E+01  2.75837869291E+01  2.79447171224E+01
  2.83103700393E+01  2.86808074762E+01  2.90560920378E+01  2.94362871481E+01
  2.98214570610E+01  3.02116668711E+01  3.06069825248E+01  3.10074708315E+01
  3.14131994744E+01  3.18242370229E+01  3.22406529432E+01  3.26625176105E+01
  3.30899023211E+01  3.35228793039E+01  3.39615217331E+01  3.44059037404E+01
  3.48561004272E+01  3.53121878780E+01  3.57742431725E+01  3.62423443993E+01
  3.67165706686E+01  3.71970021257E+01  3.76837199647E+01  3.81768064421E+01
  3.86763448906E+01  3.91824197335E+01  3.96951164985E+01  4.02145218327E+01
  4.07407235168E+01  4.12738104802E+01  4.18138728158E+01  4.23610017954E+01
  4.29152898851E+01  4.34768307609E+01  4.40457193247E+01  4.46220517198E+01
  4.52059253479E+01  4.57974388849E+01  4.63966922982E+01  4.70037868628E+01
  4.76188251793E+01  4.82419111906E+01  4.88731501997E+01  4.95126488876E+01
  5.01605153309E+01  5.08168590207E+01  5.14817908806E+01  5.21554232857E+01
  5.28378700815E+01  5.35292466031E+01  5.42296696948E+01  5.49392577297E+01
  5.56581306299E+01  5.63864098867E+01  5.71242185810E+01  5.78716814042E+01
  5.86289246792E+01  5.93960763821E+01  6.01732661633E+01  6.09606253696E+01
  6.17582870667E+01  6.25663860614E+01  6.33850589242E+01  6.42144440128E+01
  6.50546814953E+01  6.59059133738E+01  6.67682835085E+01  6.76419376421E+01
  6.85270234241E+01  6.94236904361E+01  7.03320902171E+01  7.12523762887E+01
  7.21847041815E+01  7.31292314612E+01  7.40861177550E+01  7.50555247790E+01
  7.60376163653E+01  7.70325584898E+01  7.80405193001E+01  7.90616691438E+01
  8.00961805978E+01  8.11442284969E+01  8.22059899638E+01  8.32816444387E+01
  8.43713737097E+01  8.54753619436E+01  8.65937957172E+01  8.77268640483E+01
  8.88747584283E+01  9.00376728540E+01  9.12158038607E+01  9.24093505553E+01
  9.36185146501E+01  9.48435004967E+01  9.60845151207E+01  9.73417682564E+01
  9.86154723826E+01  9.99058427583E+01  1.01213097459E+02  1.02537457415E+02
  1.03879146444E+02  1.05238391297E+02  1.06615421688E+02  1.08010470340E+02
  1.09423773017E+02  1.10855568573E+02  1.12306098984E+02  1.13775609393E+02
  1.15264348151E+02  1.16772566858E+02  1.18300520406E+02
  </PP_R>
  <PP_RAB>
  4.23133649514E-07  4.28670297193E-07  4.34279391173E-07  4.39961879403E-07
  4.45718722239E-07  4.51550892599E-07  4.57459376135E-07  4.63445171394E-07
  4.69509289990E-07  4.75652756774E-07  4.81876610006E-07  4.88181901531E-07
  4.94569696960E-07  5.01041075845E-07  5.07597131865E-07  5.14238973007E-07
  5.20967721760E-07  5.27784515298E-07  5.34690505676E-07  5.41686860021E-07
  5.48774760735E-07  5.55955405689E-07  5.63230008431E-07  5.70599798384E-07
  5.78066021062E-07  5.85629938272E-07  5.93292828337E-07  6.01055986301E-07
  6.08920724157E-07  6.16888371066E-07  6.24960273577E-07  6.33137795862E-07
  6.41422319941E-07  6.49815245919E-07  6.58317992220E-07  6.66931995829E-07
  6.75658712533E-07  6.84499617167E-07  6.93456203865E-07  7.02529986313E-07
  7.11722498000E-07  7.21035292483E-07  7.30469943647E-07  7.40028045970E-07
  7.49711214794E-07  7.59521086598E-07  7.69459319273E-07  7.79527592404E-07
  7.89727607554E-07  8.00061088549E-07  8.10529781773E-07  8.21135456458E-07
  8.31879904991E-07  8.42764943207E-07  8.53792410704E-07  8.64964171151E-07
  8.76282112601E-07  8.87748147815E-07  8.99364214578E-07  9.11132276034E-07
  9.23054321013E-07  9.35132364369E-07  9.47368447321E-07  9.59764637795E-07
  9.72323030777E-07  9.85045748666E-07  9.97934941630E-07  1.01099278798E-06
  1.02422149451E-06  1.03762329691E-06  1.05120046012E-06  1.06495527871E-06
  1.07889007728E-06  1.09300721083E-06  1.10730906521E-06  1.12179805745E-06
  1.13647663624E-06  1.15134728228E-06  1.16641250876E-06  1.18167486172E-06
  1.19713692055E-06  1.21280129837E-06  1.22867064249E-06  1.24474763487E-06
  1.26103499257E-06  1.27753546819E-06  1.29425185034E-06  1.31118696413E-06
  1.32834367164E-06  1.34572487239E-06  1.36333350385E-06  1.38117254191E-06
  1.39924500142E-06  1.41755393667E-06  1.43610244191E-06  1.45489365187E-06
  1.47393074233E-06  1.49321693059E-06  1.51275547607E-06  1.53254968082E-06
  1.55260289012E-06  1.57291849300E-06  1.59349992285E-06  1.61435065797E-06
  1.63547422221E-06  1.65687418547E-06  1.67855416442E-06  1.70051782302E-06
  1.72276887318E-06  1.74531107537E-06  1.76814823930E-06  1.79128422448E-06
  1.81472294096E-06  1.83846834994E-06  1.86252446444E-06  1.88689535002E-06
  1.91158512539E-06  1.93659796321E-06  1.96193809068E-06  1.98760979037E-06
  2.01361740084E-06  2.03996531744E-06  2.06665799304E-06  2.09369993876E-06
  2.12109572475E-06  2.14884998096E-06  2.17696739794E-06  2.20545272759E-06
  2.23431078400E-06  2.26354644424E-06  2.29316464923E-06  2.32317040450E-06
  2.35356878110E-06  2.38436491642E-06  2.41556401509E-06  2.44717134982E-06
  2.47919226234E-06  2.51163216426E-06  2.54449653798E-06  2.57779093768E-06
  2.61152099018E-06  2.64569239594E-06  2.68031093002E-06  2.71538244302E-06
  2.75091286212E-06  2.78690819204E-06  2.82337451608E-06  2.86031799713E-06
  2.89774487873E-06  2.93566148611E-06  2.97407422727E-06  3.01298959405E-06
  3.05241416324E-06  3.09235459769E-06  3.13281764744E-06  3.17381015081E-06
  3.21533903566E-06  3.25741132046E-06  3.30003411553E-06  3.34321462421E-06
  3.38696014412E-06  3.43127806836E-06  3.47617588676E-06  3.52166118716E-06
  3.56774165668E-06  3.61442508303E-06  3.66171935582E-06  3.70963246790E-06
  3.75817251670E-06  3.80734770560E-06  3.85716634532E-06  3.90763685533E-06
  3.95876776527E-06  4.01056771639E-06  4.06304546300E-06  4.11620987396E-06
  4.17006993418E-06  4.22463474615E-06  4.27991353145E-06  4.33591563232E-06
  4.39265051325E-06  4.45012776258E-06  4.50835709408E-06  4.56734834867E-06
  4.62711149600E-06  4.68765663618E-06  4.74899400150E-06  4.81113395810E-06
  4.87408700779E-06  4.93786378979E-06  5.00247508252E-06  5.06793180544E-06
  5.13424502091E-06  5.20142593600E-06  5.26948590445E-06  5.33843642856E-06
  5.40828916114E-06  5.47905590746E-06  5.55074862726E-06  5.62337943680E-06
  5.69696061084E-06  5.77150458479E-06  5.84702395675E-06  5.92353148967E-06
  6.00104011352E-06  6.07956292742E-06  6.15911320193E-06  6.23970438124E-06
  6.32135008543E-06  6.40406411283E-06  6.48786044231E-06  6.57275323565E-06
  6.65875683993E-06  6.74588578996E-06  6.83415481074E-06  6.92357881996E-06
  7.01417293047E-06  7.10595245291E-06  7.19893289822E-06  7.29312998032E-06
  7.38855961875E-06  7.48523794135E-06  7.58318128696E-06  7.68240620827E-06
  7.78292947451E-06  7.88476807435E-06  7.98793921877E-06  8.09246034393E-06
  8.19834911414E-06  8.30562342487E-06  8.41430140572E-06  8.52440142354E-06
  8.63594208549E-06  8.74894224221E-06  8.86342099098E-06  8.97939767901E-06
  9.09689190661E-06  9.21592353059E-06  9.33651266759E-06  9.45867969745E-06
  9.58244526669E-06  9.70783029198E-06  9.83485596370E-06  9.96354374949E-06
  1.00939153979E-05  1.02259929420E-05  1.03597987033E-05  1.04953552952E-05
  1.06326856271E-05  1.07718129082E-05  1.09127606514E-05  1.10555526770E-05
  1.12002131174E-05  1.13467664204E-05  1.14952373540E-05  1.16456510100E-05
  1.17980328088E-05  1.19524085032E-05  1.21088041831E-05  1.22672462798E-05
  1.24277615702E-05  1.25903771819E-05  1.27551205974E-05  1.29220196585E-05
  1.30911025718E-05  1.32623979125E-05  1.34359346301E-05  1.36117420526E-05
  1.37898498919E-05  1.39702882486E-05  1.41530876173E-05  1.43382788915E-05
  1.45258933690E-05  1.47159627570E-05  1.49085191778E-05  1.51035951737E-05
  1.53012237132E-05  1.55014381960E-05  1.57042724586E-05  1.59097607807E-05
  1.61179378903E-05  1.63288389697E-05  1.65424996618E-05  1.67589560756E-05
  1.69782447930E-05  1.72004028741E-05  1.74254678642E-05  1.76534777999E-05
  1.78844712154E-05  1.81184871490E-05  1.83555651501E-05  1.85957452854E-05
  1.88390681459E-05  1.90855748538E-05  1.93353070693E-05  1.95883069976E-05
  1.98446173965E-05  2.01042815829E-05  2.03673434408E-05  2.06338474282E-05
  2.09038385849E-05  2.11773625401E-05  2.14544655200E-05  2.17351943556E-05
  2.20195964908E-05  2.23077199902E-05  2.25996135473E-05  2.28953264930E-05
  2.31949088033E-05  2.34984111084E-05  2.38058847010E-05  2.41173815446E-05
  2.44329542832E-05  2.47526562492E-05  2.50765414731E-05  2.54046646921E-05
  2.57370813599E-05  2.60738476557E-05  2.64150204938E-05  2.67606575333E-05
  2.71108171876E-05  2.74655586345E-05  2.78249418262E-05  2.81890274993E-05