<PP_INFO>
Generated using ld1 code
Author: unknown    Generation date: as well
Info: Br  LDA 4s2 4p5 Von-Barth-Car, l=2 local
    1        The Pseudo was generated with a Scalar-Relativistic Calculation
  0.00000000000E+00    Local Potential cutoff radius
nl pn  l   occ               Rcut            Rcut US             E pseu
4S  0  0  2.00      0.00000000000      0.00000000000      0.00000000000
4P  0  1  5.00      0.00000000000      0.00000000000      0.00000000000
</PP_INFO>


<PP_HEADER>
   0                   Version Number
  Br                   Element
   NC                  Norm - Conserving pseudopotential
    F                  Nonlinear Core Correction
 SLA  PZ   NOGX NOGC   PZ   Exchange-Correlation functional
    7.00000000000      Z valence
    0.00000000000      Total energy
  0.0000000  0.0000000 Suggested cutoff for wfc and rho
    1                  Max angular momentum component
  487                  Number of points in mesh
    2    2             Number of Wavefunctions, Number of Projectors
 Wavefunctions         nl  l   occ
                       4S  0  2.00
                       4P  1  5.00
</PP_HEADER>


<PP_MESH>
  <PP_R>
  5.23303968250E-04  5.36551471277E-04  5.50134336440E-04  5.64061053471E-04
  5.78340327023E-04  5.92981082106E-04  6.07992469668E-04  6.23383872316E-04
  6.39164910176E-04  6.55345446912E-04  6.71935595886E-04  6.88945726480E-04
  7.06386470581E-04  7.24268729221E-04  7.42603679393E-04  7.61402781039E-04
  7.80677784208E-04  8.00440736406E-04  8.20703990121E-04  8.41480210546E-04
  8.62782383495E-04  8.84623823519E-04  9.07018182231E-04  9.29979456832E-04
  9.53521998866E-04  9.77660523190E-04  1.00241011717E-03  1.02778625010E-03
  1.05380478289E-03  1.08048197798E-03  1.10783450948E-03  1.13587947361E-03
  1.16463439938E-03  1.19411725957E-03  1.22434648192E-03  1.25534096067E-03
  1.28712006839E-03  1.31970366805E-03  1.35311212546E-03  1.38736632200E-03
  1.42248766765E-03  1.45849811440E-03  1.49542016996E-03  1.53327691179E-03
  1.57209200161E-03  1.61188970011E-03  1.65269488214E-03  1.69453305227E-03
  1.73743036072E-03  1.78141361970E-03  1.82651032019E-03  1.87274864909E-03
  1.92015750685E-03  1.96876652556E-03  2.01860608744E-03  2.06970734384E-03
  2.12210223470E-03  2.17582350853E-03  2.23090474289E-03  2.28738036533E-03
  2.34528567497E-03  2.40465686449E-03  2.46553104284E-03  2.52794625835E-03
  2.59194152255E-03  2.65755683459E-03  2.72483320616E-03  2.79381268718E-03
  2.86453839208E-03  2.93705452672E-03  3.01140641605E-03  3.08764053242E-03
  3.16580452464E-03  3.24594724774E-03  3.32811879353E-03  3.41237052191E-03
  3.49875509294E-03  3.58732649981E-03  3.67814010251E-03  3.77125266251E-03
  3.86672237819E-03  3.96460892123E-03  4.06497347390E-03  4.16787876732E-03
  4.27338912065E-03  4.38157048128E-03  4.49249046610E-03  4.60621840371E-03
  4.72282537776E-03  4.84238427141E-03  4.96496981287E-03  5.09065862208E-03
  5.21952925865E-03  5.35166227091E-03  5.48714024631E-03  5.62604786298E-03
  5.76847194270E-03  5.91450150518E-03  6.06422782362E-03  6.21774448186E-03
  6.37514743281E-03  6.53653505843E-03  6.70200823125E-03  6.87167037738E-03
  7.04562754119E-03  7.22398845156E-03  7.40686458988E-03  7.59437025968E-03
  7.78662265811E-03  7.98374194918E-03  8.18585133886E-03  8.39307715210E-03
  8.60554891178E-03  8.82339941966E-03  9.04676483940E-03  9.27578478167E-03
  9.51060239137E-03  9.75136443717E-03  9.99822140318E-03  1.02513275830E-02
  1.05108411763E-02  1.07769243875E-02  1.10497435273E-02  1.13294691164E-02
  1.16162759926E-02  1.19103434194E-02  1.22118551985E-02  1.25209997847E-02
  1.28379704033E-02  1.31629651714E-02  1.34961872212E-02  1.38378448273E-02
  1.41881515369E-02  1.45473263031E-02  1.49155936217E-02  1.52931836720E-02
  1.56803324598E-02  1.60772819659E-02  1.64842802966E-02  1.69015818391E-02
  1.73294474204E-02  1.77681444704E-02  1.82179471892E-02  1.86791367180E-02
  1.91520013153E-02  1.96368365369E-02  2.01339454205E-02  2.06436386755E-02
  2.11662348766E-02  2.17020606636E-02  2.22514509449E-02  2.28147491074E-02
  2.33923072308E-02  2.39844863077E-02  2.45916564693E-02  2.52141972167E-02
  2.58524976582E-02  2.65069567522E-02  2.71779835572E-02  2.78659974865E-02
  2.85714285714E-02  2.92947177293E-02  3.00363170393E-02  3.07966900253E-02
  3.15763119450E-02  3.23756700876E-02  3.31952640780E-02  3.40356061889E-02
  3.48972216617E-02  3.57806490341E-02  3.66864404768E-02  3.76151621391E-02
  3.85673945022E-02  3.95437327423E-02  4.05447871027E-02  4.15711832748E-02
  4.26235627898E-02  4.37025834190E-02  4.48089195854E-02  4.59432627853E-02
  4.71063220200E-02  4.82988242394E-02  4.95215147962E-02  5.07751579118E-02
  5.20605371540E-02  5.33784559266E-02  5.47297379718E-02  5.61152278849E-02
  5.75357916420E-02  5.89923171419E-02  6.04857147604E-02  6.20169179195E-02
  6.35868836712E-02  6.51965932951E-02  6.68470529122E-02  6.85392941133E-02
  7.02743746045E-02  7.20533788674E-02  7.38774188376E-02  7.57476345995E-02
  7.76651950988E-02  7.96312988733E-02  8.16471748018E-02  8.37140828724E-02
  8.58333149699E-02  8.80061956834E-02  9.02340831340E-02  9.25183698239E-02
  9.48604835068E-02  9.72618880797E-02  9.97240844989E-02  1.02248611717E-01
  1.04837047646E-01  1.07491010143E-01  1.10212158020E-01  1.13002192083E-01
  1.15862856196E-01  1.18795938364E-01  1.21803271862E-01  1.24886736369E-01
  1.28048259153E-01  1.31289816266E-01  1.34613433788E-01  1.38021189089E-01
  1.41515212126E-01  1.45097686777E-01  1.48770852205E-01  1.52537004259E-01
  1.56398496906E-01  1.60357743706E-01  1.64417219314E-01  1.68579461038E-01
  1.72847070412E-01  1.77222714832E-01  1.81709129217E-01  1.86309117724E-01
  1.91025555494E-01  1.95861390454E-01  2.00819645160E-01  2.05903418681E-01
  2.11115888541E-01  2.16460312704E-01  2.21940031609E-01  2.27558470258E-01
  2.33319140359E-01  2.39225642518E-01  2.45281668491E-01  2.51491003491E-01
  2.57857528555E-01  2.64385222969E-01  2.71078166753E-01  2.77940543216E-01
  2.84976641566E-01  2.92190859594E-01  2.99587706421E-01  3.07171805316E-01
  3.14947896590E-01  3.22920840551E-01  3.31095620549E-01  3.39477346089E-01
  3.48071256020E-01  3.56882721817E-01  3.65917250933E-01  3.75180490243E-01
  3.84678229571E-01  3.94416405316E-01  4.04401104154E-01  4.14638566845E-01
  4.25135192139E-01  4.35897540767E-01  4.46932339548E-01  4.58246485590E-01
  4.69847050603E-01  4.81741285317E-01  4.93936624016E-01  5.06440689185E-01
  5.19261296270E-01  5.32406458569E-01  5.45884392235E-01  5.59703521417E-01
  5.73872483520E-01  5.88400134606E-01  6.03295554930E-01  6.18568054615E-01
  6.34227179470E-01  6.50282716958E-01  6.66744702313E-01  6.83623424811E-01
  7.00929434203E-01  7.18673547309E-01  7.36866854777E-01  7.55520728016E-01
  7.74646826305E-01  7.94257104076E-01  8.14363818393E-01  8.34979536607E-01
  8.56117144211E-01  8.77789852900E-01  9.00011208821E-01  9.22795101046E-01
  9.46155770248E-01  9.70107817607E-01  9.94666213931E-01  1.01984630902E+00
  1.04566384125E+00  1.07213494742E+00  1.09927617283E+00  1.12710448163E+00
  1.15563726743E+00  1.18489236414E+00  1.21488805714E+00  1.24564309473E+00
  1.27717669981E+00  1.30950858190E+00  1.34265894947E+00  1.37664852260E+00
  1.41149854587E+00  1.44723080168E+00  1.48386762385E+00  1.52143191159E+00
  1.55994714380E+00  1.59943739376E+00  1.63992734416E+00  1.68144230252E+00
  1.72400821707E+00  1.76765169287E+00  1.81240000852E+00  1.85828113317E+00
  1.90532374403E+00  1.95355724424E+00  2.00301178133E+00  2.05371826599E+00
  2.10570839142E+00  2.15901465314E+00  2.21367036929E+00  2.26970970149E+00
  2.32716767614E+00  2.38608020634E+00  2.44648411435E+00  2.50841715456E+00
  2.57191803716E+00  2.63702645225E+00  2.70378309471E+00  2.77222968963E+00
  2.84240901834E+00  2.91436494522E+00  2.98814244506E+00  3.06378763120E+00
  3.14134778435E+00  3.22087138212E+00  3.30240812935E+00  3.38600898916E+00
  3.47172621482E+00  3.55961338238E+00  3.64972542417E+00  3.74211866317E+00
  3.83685084814E+00  3.93398118980E+00  4.03357039776E+00  4.13568071852E+00
  4.24037597436E+00  4.34772160322E+00  4.45778469961E+00  4.57063405655E+00
  4.68634020857E+00  4.80497547577E+00  4.92661400905E+00  5.05133183647E+00
  5.17920691072E+00  5.31031915788E+00  5.44475052739E+00  5.58258504322E+00
  5.72390885642E+00  5.86881029899E+00  6.01737993905E+00  6.16971063745E+00
  6.32589760583E+00  6.48603846615E+00  6.65023331165E+00  6.81858476945E+00
  6.99119806469E+00  7.16818108631E+00  7.34964445445E+00  7.53570158963E+00
  7.72646878360E+00  7.92206527209E+00  8.12261330925E+00  8.32823824415E+00
  8.53906859906E+00  8.75523614981E+00  8.97687600816E+00  9.20412670624E+00
  9.43713028313E+00  9.67603237366E+00  9.92098229939E+00  1.01721331620E+01
  1.04296419390E+01  1.06936695817E+01  1.09643811160E+01  1.12419457455E+01
  1.15265369569E+01  1.18183326292E+01  1.21175151441E+01  1.24242715005E+01
  1.27387934309E+01  1.30612775220E+01  1.33919253366E+01  1.37309435406E+01
  1.40785440312E+01  1.44349440702E+01  1.48003664191E+01  1.51750394788E+01
  1.55591974322E+01  1.59530803904E+01  1.63569345432E+01  1.67710123126E+01
  1.71955725106E+01  1.76308805012E+01  1.80772083661E+01  1.85348350746E+01
  1.90040466584E+01  1.94851363900E+01  1.99784049662E+01  2.04841606958E+01
  2.10027196926E+01  2.15344060730E+01  2.20795521581E+01  2.26384986822E+01
  2.32115950048E+01  2.37991993299E+01  2.44016789293E+01  2.50194103724E+01
  2.56527797614E+01  2.63021829729E+01  2.69680259049E+01  2.76507247310E+01
  2.83507061601E+01  2.90684077035E+01  2.98042779480E+01  3.05587768364E+01
  3.13323759551E+01  3.21255588287E+01  3.29388212224E+01  3.37726714516E+01
  3.46276306998E+01  3.55042333444E+01  3.64030272907E+01  3.73245743140E+01
  3.82694504113E+01  3.92382461608E+01  4.02315670916E+01  4.12500340614E+01
  4.22942836453E+01  4.33649685332E+01  4.44627579382E+01  4.55883380143E+01
  4.67424122856E+01  4.79257020862E+01  4.91389470107E+01  5.03829053768E+01
  5.16583546987E+01  5.29660921740E+01  5.43069351811E+01  5.56817217906E+01
  5.70913112887E+01  5.85365847149E+01  6.00184454120E+01  6.15378195913E+01
  6.30956569111E+01  6.46929310703E+01  6.63306404175E+01  6.80098085741E+01
  6.97314850750E+01  7.14967460240E+01  7.33066947667E+01  7.51624625800E+01
  7.70652093791E+01  7.90161244428E+01  8.10164271564E+01  8.30673677743E+01
  8.51702282012E+01  8.73263227932E+01  8.95369991797E+01  9.18036391053E+01
  9.41276592938E+01  9.65105123335E+01  9.89536875851E+01
  </PP_R>
  <PP_RAB>
  1.30825992062E-05  1.34137867819E-05  1.37533584110E-05  1.41015263368E-05
  1.44585081756E-05  1.48245270526E-05  1.51998117417E-05  1.55845968079E-05
  1.59791227544E-05  1.63836361728E-05  1.67983898971E-05  1.72236431620E-05
  1.76596617645E-05  1.81067182305E-05  1.85650919848E-05  1.90350695260E-05
  1.95169446052E-05  2.00110184102E-05  2.05175997530E-05  2.10370052636E-05
  2.15695595874E-05  2.21155955880E-05  2.26754545558E-05  2.32494864208E-05
  2.38380499717E-05  2.44415130798E-05  2.50602529292E-05  2.56946562524E-05
  2.63451195723E-05  2.70120494495E-05  2.76958627369E-05  2.83969868402E-05
  2.91158599845E-05  2.98529314892E-05  3.06086620479E-05  3.13835240167E-05
  3.21780017097E-05  3.29925917012E-05  3.38278031365E-05  3.46841580500E-05
  3.55621916913E-05  3.64624528601E-05  3.73855042489E-05  3.83319227948E-05
  3.93023000403E-05  4.02972425027E-05  4.13173720535E-05  4.23633263067E-05
  4.34357590180E-05  4.45353404926E-05  4.56627580048E-05  4.68187162272E-05
  4.80039376712E-05  4.92191631390E-05  5.04651521860E-05  5.17426835959E-05
  5.30525558674E-05  5.43955877133E-05  5.57726185723E-05  5.71845091334E-05
  5.86321418742E-05  6.01164216124E-05  6.16382760710E-05  6.31986564586E-05
  6.47985380639E-05  6.64389208648E-05  6.81208301540E-05  6.98453171795E-05
  7.16134598020E-05  7.34263631681E-05  7.52851604013E-05  7.71910133106E-05
  7.91451131160E-05  8.11486811934E-05  8.32029698382E-05  8.53092630477E-05
  8.74688773236E-05  8.96831624951E-05  9.19535025627E-05  9.42813165627E-05
  9.66680594547E-05  9.91152230307E-05  1.01624336848E-04  1.04196969183E-04
  1.06834728016E-04  1.09539262032E-04  1.12312261653E-04  1.15155460093E-04
  1.18070634444E-04  1.21059606785E-04  1.24124245322E-04  1.27266465552E-04
  1.30488231466E-04  1.33791556773E-04  1.37178506158E-04  1.40651196574E-04
  1.44211798568E-04  1.47862537629E-04  1.51605695591E-04  1.55443612047E-04
  1.59378685820E-04  1.63413376461E-04  1.67550205781E-04  1.71791759435E-04
  1.76140688530E-04  1.80599711289E-04  1.85171614747E-04  1.89859256492E-04
  1.94665566453E-04  1.99593548730E-04  2.04646283472E-04  2.09826928803E-04
  2.15138722794E-04  2.20584985491E-04  2.26169120985E-04  2.31894619542E-04
  2.37765059784E-04  2.43784110929E-04  2.49955535079E-04  2.56283189576E-04
  2.62771029408E-04  2.69423109688E-04  2.76243588182E-04  2.83236727911E-04
  2.90406899815E-04  2.97758585485E-04  3.05296379963E-04  3.13024994618E-04
  3.20949260084E-04  3.29074129285E-04  3.37404680529E-04  3.45946120682E-04
  3.54703788422E-04  3.63683157577E-04  3.72889840544E-04  3.82329591799E-04
  3.92008311496E-04  4.01932049148E-04  4.12107007415E-04  4.22539545976E-04
  4.33236185509E-04  4.44203611761E-04  4.55448679730E-04  4.66978417950E-04
  4.78800032883E-04  4.90920913422E-04  5.03348635513E-04  5.16090966887E-04
  5.29155871916E-04  5.42551516589E-04  5.56286273622E-04  5.70368727685E-04
  5.84807680770E-04  5.99612157692E-04  6.14791411732E-04  6.30354930418E-04
  6.46312441454E-04  6.62673918806E-04  6.79449588929E-04  6.96649937163E-04
  7.14285714286E-04  7.32367943232E-04  7.50907925983E-04  7.69917250632E-04
  7.89407798625E-04  8.09391752191E-04  8.29881601949E-04  8.50890154723E-04
  8.72430541543E-04  8.94516225851E-04  9.17161011920E-04  9.40379053477E-04
  9.64184862554E-04  9.88593318558E-04  1.01361967757E-03  1.03927958187E-03
  1.06558906974E-03  1.09256458547E-03  1.12022298964E-03  1.14858156963E-03
  1.17765805050E-03  1.20747060599E-03  1.23803786991E-03  1.26937894780E-03
  1.30151342885E-03  1.33446139817E-03  1.36824344930E-03  1.40288069712E-03
  1.43839479105E-03  1.47480792855E-03  1.51214286901E-03  1.55042294799E-03
  1.58967209178E-03  1.62991483238E-03  1.67117632280E-03  1.71348235283E-03
  1.75685936511E-03  1.80133447168E-03  1.84693547094E-03  1.89369086499E-03
  1.94162987747E-03  1.99078247183E-03  2.04117937005E-03  2.09285207181E-03
  2.14583287425E-03  2.20015489208E-03  2.25585207835E-03  2.31295924560E-03
  2.37151208767E-03  2.43154720199E-03  2.49310211247E-03  2.55621529293E-03
  2.62092619116E-03  2.68727525357E-03  2.75530395050E-03  2.82505480209E-03
  2.89657140489E-03  2.96989845911E-03  3.04508179655E-03  3.12216840924E-03
  3.20120647881E-03  3.28224540665E-03  3.36533584471E-03  3.45052972722E-03
  3.53788030314E-03  3.62744216941E-03  3.71927130513E-03  3.81342510648E-03
  3.90996242266E-03  4.00894359264E-03  4.11043048286E-03  4.21448652594E-03
  4.32117676029E-03  4.43056787079E-03  4.54272823043E-03  4.65772794309E-03
  4.77563888734E-03  4.89653476136E-03  5.02049112899E-03  5.14758546701E-03
  5.27789721352E-03  5.41150781760E-03  5.54850079022E-03  5.68896175645E-03
  5.83297850898E-03  5.98064106295E-03  6.13204171227E-03  6.28727508728E-03
  6.44643821388E-03  6.60963057422E-03  6.77695416883E-03  6.94851358040E-03
  7.12441603915E-03  7.30477148985E-03  7.48969266052E-03  7.67929513291E-03
  7.87369741474E-03  8.07302101377E-03  8.27739051373E-03  8.48693365221E-03
  8.70178140050E-03  8.92206804543E-03  9.14793127333E-03  9.37951225606E-03
  9.61695573929E-03  9.86041013291E-03  1.01100276038E-02  1.03659641711E-02
  1.06283798035E-02  1.08974385192E-02  1.11733084887E-02  1.14561621398E-02
  1.17461762651E-02  1.20435321329E-02  1.23484156004E-02  1.26610172296E-02
  1.29815324067E-02  1.33101614642E-02  1.36471098059E-02  1.39925880354E-02
  1.43468120880E-02  1.47100033651E-02  1.50823888732E-02  1.54642013654E-02
  1.58556794867E-02  1.62570679239E-02  1.66686175578E-02  1.70905856203E-02
  1.75232358551E-02  1.79668386827E-02  1.84216713694E-02  1.88880182004E-02
  1.93661706576E-02  1.98564276019E-02  2.03590954598E-02  2.08744884152E-02
  2.14029286053E-02  2.19447463225E-02  2.25002802205E-02  2.30698775262E-02
  2.36538942562E-02  2.42526954402E-02  2.48666553483E-02  2.54961577255E-02
  2.61415960312E-02  2.68033736854E-02  2.74819043207E-02  2.81776120409E-02
  2.88909316858E-02  2.96223091035E-02  3.03722014286E-02  3.11410773684E-02
  3.19294174952E-02  3.27377145474E-02  3.35664737368E-02  3.44162130651E-02
  3.52874636468E-02  3.61807700420E-02  3.70966905963E-02  3.80357977898E-02
  3.89986785951E-02  3.99859348440E-02  4.09981836039E-02  4.20360575631E-02
  4.31002054267E-02  4.41912923217E-02  4.53100002129E-02  4.64570283293E-02
  4.76330936007E-02  4.88389311061E-02  5.00752945333E-02  5.13429566498E-02
  5.26427097854E-02  5.39753663284E-02  5.53417592323E-02  5.67427425373E-02
  5.81791919035E-02  5.96520051586E-02  6.11621028587E-02  6.27104288641E-02
  6.42979509289E-02  6.59256613062E-02  6.75945773678E-02  6.93057422407E-02
  7.10602254585E-02  7.28591236305E-02  7.47035611265E-02  7.65946907800E-02
  7.85336946087E-02  8.05217845529E-02  8.25602032337E-02  8.46502247291E-02
  8.67931553705E-02  8.89903345594E-02  9.12431356043E-02  9.35529665792E-02
  9.59212712035E-02  9.83495297449E-02  1.00839259944E-01  1.03392017963E-01
  1.06009399359E-01  1.08693040080E-01  1.11444617490E-01  1.14265851414E-01
  1.17158505214E-01  1.20124386894E-01  1.23165350226E-01  1.26283295912E-01
  1.29480172768E-01  1.32757978947E-01  1.36118763185E-01  1.39564626080E-01
  1.43097721411E-01  1.46720257475E-01  1.50434498476E-01  1.54242765936E-01
  1.58147440146E-01  1.62150961654E-01  1.66255832791E-01  1.70464619236E-01
  1.74779951617E-01  1.79204527158E-01  1.83741111361E-01  1.88392539741E-01
  1.93161719590E-01  1.98051631802E-01  2.03065332731E-01  2.08205956104E-01
  2.13476714976E-01  2.18880903745E-01  2.24421900204E-01  2.30103167656E-01
  2.35928257078E-01  2.41900809341E-01  2.48024557485E-01  2.54303329051E-01
  2.60741048475E-01  2.67341739543E-01  2.74109527901E-01  2.81048643636E-01
  2.88163423923E-01  2.95458315731E-01  3.02937878603E-01  3.10606787512E-01
  3.18469835773E-01  3.26531938049E-01  3.34798133416E-01  3.43273588515E-01
  3.51963600781E-01  3.60873601755E-01  3.70009160477E-01  3.79375986970E-01
  3.88979935804E-01  3.98827009761E-01  4.08923363581E-01  4.19275307816E-01
  4.29889312766E-01  4.40772012531E-01  4.51930209152E-01  4.63370876865E-01
  4.75101166460E-01  4.87128409750E-01  4.99460124154E-01  5.12104017394E-01
  5.25067992316E-01  5.38360151825E-01  5.51988803954E-01  5.65962467054E-01
  5.80289875120E-01  5.94979983247E-01  6.10041973233E-01  6.25485259310E-01
  6.41319494036E-01  6.57554574322E-01  6.74200647623E-01  6.91268118275E-01
  7.08767654004E-01  7.26710192589E-01  7.45106948700E-01  7.63969420910E-01
  7.83309398877E-01  8.03138970718E-01  8.23470530560E-01  8.44316786289E-01
  8.65690767495E-01  8.87605833611E-01  9.10075682267E-01  9.33114357850E-01
  9.56736260282E-01  9.80956154021E-01  1.00578917729E+00  1.03125085153E+00
  1.05735709113E+00  1.08412421333E+00  1.11156894846E+00  1.13970845036E+00
  1.16856030714E+00  1.19814255216E+00  1.22847367527E+00  1.25957263442E+00
  1.29145886747E+00  1.32415230435E+00  1.35767337953E+00  1.39204304476E+00
  1.42728278222E+00  1.46341461787E+00  1.50046113530E+00  1.53844548978E+00
  1.57739142278E+00  1.61732327676E+00  1.65826601044E+00  1.70024521435E+00
  1.74328712687E+00  1.78741865060E+00  1.83266736917E+00  1.87906156450E+00
  1.92663023448E+00  1.97540311107E+00  2.02541067891E+00  2.07668419436E+00
  2.12925570503E+00  2.18315806983E+00  2.23842497949E+00  2.29509097763E+00
  2.35319148235E+00  2.41276280834E+00  2.47384218963E+00
  </PP_RAB>
</PP_MESH>


<PP_LOCAL>
 -1.59084906042E+01 -1.59084905249E+01 -1.59084904415E+01 -1.59084903538E+01
 -1.59084902616E+01 -1.59084901647E+01 -1.59084900629E+01 -1.59084899558E+01
 -1.59084898432E+01 -1.59084897249E+01 -1.59084896004E+01 -1.59084894697E+01
 -1.59084893322E+01 -1.59084891876E+01 -1.59084890356E+01 -1.59084888759E+01
 -1.59084887079E+01 -1.59084885314E+01 -1.59084883458E+01 -1.59084881507E+01
 -1.59084879455E+01 -1.59084877299E+01 -1.59084875032E+01 -1.59084872649E+01
 -1.59084870143E+01 -1.59084867509E+01 -1.59084864740E+01 -1.59084861829E+01
 -1.59084858769E+01 -1.59084855552E+01 -1.59084852170E+01 -1.59084848615E+01
 -1.59084844877E+01 -1.59084840948E+01 -1.59084836817E+01 -1.59084832474E+01
 -1.59084827909E+01 -1.59084823110E+01 -1.59084818065E+01 -1.59084812761E+01
 -1.59084807185E+01 -1.59084801323E+01 -1.59084795161E+01 -1.59084788682E+01
 -1.59084781872E+01 -1.59084774712E+01 -1.59084767185E+01 -1.59084759273E+01
 -1.59084750954E+01 -1.59084742209E+01 -1.59084733016E+01 -1.59084723352E+01
 -1.59084713192E+01 -1.59084702511E+01 -1.59084691282E+01 -1.59084679478E+01
 -1.59084667068E+01 -1.59084654023E+01 -1.59084640308E+01 -1.59084625890E+01
 -1.59084610733E+01 -1.59084594799E+01 -1.59084578048E+01 -1.59084560438E+01
 -1.59084541926E+01 -1.59084522464E+01 -1.59084502004E+01 -1.59084480495E+01
 -1.59084457884E+01 -1.59084434113E+01 -1.59084409123E+01 -1.59084382853E+01
 -1.59084355235E+01 -1.59084326201E+01 -1.59084295679E+01 -1.59084263592E+01
 -1.59084229859E+01 -1.59084194398E+01 -1.59084157118E+01 -1.59084117926E+01
 -1.59084076726E+01 -1.59084033413E+01 -1.59083987879E+01 -1.59083940011E+01
 -1.59083889688E+01 -1.59083836786E+01 -1.59083781171E+01 -1.59083722704E+01
 -1.59083661240E+01 -1.59083596625E+01 -1.59083528697E+01 -1.59083457287E+01
 -1.59083382215E+01 -1.59083303294E+01 -1.59083220327E+01 -1.59083133106E+01
 -1.59083041413E+01 -1.59082945020E+01 -1.59082843684E+01 -1.59082737152E+01
 -1.59082625159E+01 -1.59082507424E+01 -1.59082383653E+01 -1.59082253536E+01
 -1.59082116748E+01 -1.59081972947E+01 -1.59081821774E+01 -1.59081662850E+01
 -1.59081495778E+01 -1.59081320140E+01 -1.59081135498E+01 -1.59080941390E+01
 -1.59080737329E+01 -1.59080522807E+01 -1.59080297287E+01 -1.59080060204E+01
 -1.59079810967E+01 -1.59079548952E+01 -1.59079273505E+01 -1.59078983935E+01
 -1.59078679520E+01 -1.59078359499E+01 -1.59078023071E+01 -1.59077669396E+01
 -1.59077297588E+01 -1.59076906720E+01 -1.59076495813E+01 -1.59076063841E+01
 -1.59075609724E+01 -1.59075132326E+01 -1.59074630455E+01 -1.59074102855E+01
 -1.59073548208E+01 -1.59072965128E+01 -1.59072352157E+01 -1.59071707763E+01
 -1.59071030336E+01 -1.59070318182E+01 -1.59069569522E+01 -1.59068782484E+01
 -1.59067955103E+01 -1.59067085309E+01 -1.59066170930E+01 -1.59065209680E+01
 -1.59064199158E+01 -1.59063136838E+01 -1.59062020067E+01 -1.59060846054E+01
 -1.59059611865E+01 -1.59058314419E+01 -1.59056950472E+01 -1.59055516618E+01
 -1.59054009276E+01 -1.59052424679E+01 -1.59050758871E+01 -1.59049007692E+01
 -1.59047166766E+01 -1.59045231499E+01 -1.59043197056E+01 -1.59041058359E+01
 -1.59038810067E+01 -1.59036446568E+01 -1.59033961962E+01 -1.59031350048E+01
 -1.59028604305E+01 -1.59025717883E+01 -1.59022683578E+01 -1.59019493820E+01
 -1.59016140651E+01 -1.59012615706E+01 -1.59008910194E+01 -1.59005014873E+01
 -1.59000920031E+01 -1.58996615459E+01 -1.58992090425E+01 -1.58987333653E+01
 -1.58982333287E+01 -1.58977076871E+01 -1.58971551309E+01 -1.58965742839E+01
 -1.58959636998E+01 -1.58953218586E+01 -1.58946471627E+01 -1.58939379332E+01
 -1.58931924057E+01 -1.58924087259E+01 -1.58915849454E+01 -1.58907190164E+01
 -1.58898087872E+01 -1.58888519966E+01 -1.58878462685E+01 -1.58867891064E+01
 -1.58856778869E+01 -1.58845098536E+01 -1.58832821102E+01 -1.58819916140E+01
 -1.58806351680E+01 -1.58792094134E+01 -1.58777108217E+01 -1.58761356860E+01
 -1.58744801124E+01 -1.58727400103E+01 -1.58709110831E+01 -1.58689888177E+01
 -1.58669684740E+01 -1.58648450734E+01 -1.58626133876E+01 -1.58602679259E+01
 -1.58578029224E+01 -1.58552123227E+01 -1.58524897698E+01 -1.58496285895E+01
 -1.58466217748E+01 -1.58434619699E+01 -1.58401414535E+01 -1.58366521214E+01
 -1.58329854677E+01 -1.58291325663E+01 -1.58250840505E+01 -1.58208300925E+01
 -1.58163603815E+01 -1.58116641012E+01 -1.58067299064E+01 -1.58015458982E+01
 -1.57960995991E+01 -1.57903779258E+01 -1.57843671623E+01 -1.57780529310E+01
 -1.57714201634E+01 -1.57644530690E+01 -1.57571351038E+01 -1.57494489373E+01
 -1.57413764186E+01 -1.57328985411E+01 -1.57239954065E+01 -1.57146461875E+01
 -1.57048290891E+01 -1.56945213097E+01 -1.56836990004E+01 -1.56723372238E+01
 -1.56604099115E+01 -1.56478898212E+01 -1.56347484929E+01 -1.56209562044E+01
 -1.56064819262E+01 -1.55912932762E+01 -1.55753564741E+01 -1.55586362956E+01
 -1.55410960271E+01 -1.55226974204E+01 -1.55034006482E+01 -1.54831642607E+01
 -1.54619451433E+01 -1.54396984760E+01 -1.54163776946E+01 -1.53919344552E+01
 -1.53663186007E+01 -1.53394781316E+01 -1.53113591805E+01 -1.52819059920E+01
 -1.52510609075E+01 -1.52187643572E+01 -1.51849548579E+01 -1.51495690209E+01
 -1.51125415672E+01 -1.50738053538E+01 -1.50332914115E+01 -1.49909289943E+01
 -1.49466456438E+01 -1.49003672676E+01 -1.48520182351E+01 -1.48015214911E+01
 -1.47487986888E+01 -1.46937703441E+01 -1.46363560124E+01 -1.45764744905E+01
 -1.45140440430E+01 -1.44489826582E+01 -1.43812083312E+01 -1.43106393790E+01
 -1.42371947867E+01 -1.41607945872E+01 -1.40813602748E+01 -1.39988152542E+01
 -1.39130853241E+01 -1.38240991968E+01 -1.37317890531E+01 -1.36360911316E+01
 -1.35369463503E+01 -1.34343009603E+01 -1.33281072276E+01 -1.32183241395E+01
 -1.31049181317E+01 -1.29878638317E+01 -1.28671448096E+01 -1.27427543331E+01
 -1.26146961141E+01 -1.24829850407E+01 -1.23476478835E+01 -1.22087239631E+01
 -1.20662657689E+01 -1.19203395143E+01 -1.17710256155E+01 -1.16184190789E+01
 -1.14626297827E+01 -1.13037826399E+01 -1.11420176257E+01 -1.09774896604E+01
 -1.08103683324E+01 -1.06408374543E+01 -1.04690944431E+01 -1.02953495208E+01
 -1.01198247338E+01 -9.94275279309E+00 -9.76437574278E+00 -9.58494346766E+00
 -9.40471205489E+00 -9.22394203050E+00 -9.04289649487E+00 -8.86183918553E+00
 -8.68103249906E+00 -8.50073550617E+00 -8.32120199583E+00 -8.14267858440E+00
 -7.96540292521E+00 -7.78960205146E+00 -7.61549088227E+00 -7.44327091694E+00
 -7.27312913708E+00 -7.10523712987E+00 -6.93975043978E+00 -6.77680814882E+00
 -6.61653268014E+00 -6.45902981381E+00 -6.30438889992E+00 -6.15268325058E+00
 -6.00397069063E+00 -5.85829424643E+00 -5.71568295159E+00 -5.57615275004E+00
 -5.43970747729E+00 -5.30633990205E+00 -5.17603281102E+00 -5.04876011975E+00
 -4.92448799256E+00 -4.80317595382E+00 -4.68477797257E+00 -4.56924350251E+00
 -4.45651845980E+00 -4.34654612326E+00 -4.23926794370E+00 -4.13462425331E+00
 -4.03255487030E+00 -3.93299959850E+00 -3.83589862653E+00 -3.74119283466E+00
 -3.64882402044E+00 -3.55873505596E+00 -3.47086998982E+00 -3.38517410653E+00
 -3.30159395442E+00 -3.22007735145E+00 -3.14057337641E+00 -3.06303235081E+00
 -2.98740581546E+00 -2.91364650412E+00 -2.84170831598E+00 -2.77154628778E+00
 -2.70311656616E+00 -2.63637638035E+00 -2.57128401560E+00 -2.50779878705E+00
 -2.44588101439E+00 -2.38549199697E+00 -2.32659398971E+00 -2.26915017943E+00
 -2.21312466188E+00 -2.15848241929E+00 -2.10518929847E+00 -2.05321198949E+00
 -2.00251800485E+00 -1.95307565914E+00 -1.90485404930E+00 -1.85782303525E+00
 -1.81195322108E+00 -1.76721593665E+00 -1.72358321971E+00 -1.68102779839E+00
 -1.63952307416E+00 -1.59904310523E+00 -1.55956259029E+00 -1.52105685274E+00
 -1.48350182523E+00 -1.44687403466E+00 -1.41115058746E+00 -1.37630915532E+00
 -1.34232796120E+00 -1.30918576575E+00 -1.27686185402E+00 -1.24533602252E+00
 -1.21458856657E+00 -1.18460026801E+00 -1.15535238318E+00 -1.12682663120E+00
 -1.09900518255E+00 -1.07187064791E+00 -1.04540606732E+00 -1.01959489955E+00
 -9.94421011785E-01 -9.69868669523E-01 -9.45922526752E-01 -9.22567616352E-01
 -8.99789340744E-01 -8.77573462765E-01 -8.55906096768E-01 -8.34773699943E-01
 -8.14163063855E-01 -7.94061306185E-01 -7.74455862681E-01 -7.55334479301E-01
 -7.36685204559E-01 -7.18496382051E-01 -7.00756643171E-01 -6.83454900004E-01
 -6.66580338398E-01 -6.50122411203E-01 -6.34070831678E-01 -6.18415567064E-01
 -6.03146832310E-01 -5.88255083960E-01 -5.73731014188E-01 -5.59565544975E-01
 -5.45749822444E-01 -5.32275211317E-01 -5.19133289525E-01 -5.06315842937E-01
 -4.93814860234E-01 -4.81622527893E-01 -4.69731225310E-01 -4.58133520034E-01
 -4.46822163122E-01 -4.35790084607E-01 -4.25030389080E-01 -4.14536351383E-01
 -4.04301412400E-01 -3.94319174961E-01 -3.84583399842E-01 -3.75088001868E-01
 -3.65827046105E-01 -3.56794744154E-01 -3.47985450533E-01 -3.39393659146E-01
 -3.31013999845E-01 -3.22841235069E-01 -3.14870256574E-01 -3.07096082240E-01
 -2.99513852953E-01 -2.92118829575E-01 -2.84906389975E-01 -2.77872026143E-01
 -2.71011341372E-01 -2.64320047513E-01 -2.57793962287E-01 -2.51429006679E-01
 -2.45221202386E-01 -2.39166669326E-01 -2.33261623221E-01 -2.27502373223E-01
 -2.21885319615E-01 -2.16406951554E-01 -2.11063844882E-01 -2.05852659984E-01
 -2.00770139700E-01 -1.95813107289E-01 -1.90978464444E-01 -1.86263189356E-01
 -1.81664334825E-01 -1.77179026417E-01 -1.72804460668E-01 -1.68537903332E-01
 -1.64376687672E-01 -1.60318212793E-01 -1.56359942016E-01 -1.52499401292E-01
 -1.48734177659E-01 -1.45061917728E-01 -1.41480326218E-01
</PP_LOCAL>


<PP_NONLOCAL>
  <PP_BETA>
    1    0             Beta    L
   396
  2.94647256312E-03  3.02106272777E-03  3.09754133489E-03  3.17595571282E-03
  3.25635544358E-03  3.33879031403E-03  3.42331215986E-03  3.50997343129E-03
  3.59882883229E-03  3.68993347646E-03  3.78334452621E-03  3.87912016828E-03
  3.97732063819E-03  4.07800678598E-03  4.18124192022E-03  4.28709057868E-03
  4.39561852829E-03  4.50689419937E-03  4.62098663672E-03  4.73796734361E-03
  4.85790946221E-03  4.98088797844E-03  5.10697972201E-03  5.23626336633E-03
  5.36882004319E-03  5.50473231833E-03  5.64408521579E-03  5.78696580814E-03