<PP_INFO>
Generated using unknown code
Author: X. Gonze et al.   Generation date: 1990
Info:  S BHS modified for use as KB with l=2 as local part
    0        The Pseudo was generated with a Non-Relativistic Calculation
  0.00000000000E+00    Local Potential cutoff radius
nl pn  l   occ               Rcut            Rcut US             E pseu
5S  0  0  2.00      0.00000000000      0.00000000000      0.00000000000
5P  0  1  4.00      0.00000000000      0.00000000000      0.00000000000
</PP_INFO>


<PP_HEADER>
   0                   Version Number
  S                    Element
   NC                  Norm - Conserving pseudopotential
    F                  Nonlinear Core Correction
 SLA  PZ   NOGX NOGC   PZ   Exchange-Correlation functional
    6.00000000000      Z valence
    0.00000000000      Total energy
  0.0000000  0.0000000 Suggested cutoff for wfc and rho
    1                  Max angular momentum component
  475                  Number of points in mesh
    2    2             Number of Wavefunctions, Number of Projectors
 Wavefunctions         nl  l   occ
                       5S  0  2.00
                       5P  1  4.00
</PP_HEADER>


<PP_MESH>
  <PP_R>
  4.21121687443E-04  4.31782433716E-04  4.42713058066E-04  4.53920392488E-04
  4.65411441933E-04  4.77193388679E-04  4.89273596827E-04  5.01659616900E-04
  5.14359190564E-04  5.27380255466E-04  5.40730950195E-04  5.54419619371E-04
  5.68454818856E-04  5.82845321108E-04  5.97600120659E-04  6.12728439739E-04
  6.28239734040E-04  6.44143698625E-04  6.60450273991E-04  6.77169652277E-04
  6.94312283640E-04  7.11888882782E-04  7.29910435650E-04  7.48388206300E-04
  7.67333743942E-04  7.86758890152E-04  8.06675786280E-04  8.27096881034E-04
  8.48034938263E-04  8.69503044934E-04  8.91514619312E-04  9.14083419350E-04
  9.37223551280E-04  9.60949478439E-04  9.85276030303E-04  1.01021841176E-03
  1.03579221261E-03  1.06201341731E-03  1.08889841497E-03  1.11646400958E-03
  1.14472743055E-03  1.17370634342E-03  1.20341886096E-03  1.23388355447E-03
  1.26511946536E-03  1.29714611711E-03  1.32998352740E-03  1.36365222069E-03
  1.39817324101E-03  1.43356816512E-03  1.46985911600E-03  1.50706877668E-03
  1.54522040440E-03  1.58433784517E-03  1.62444554867E-03  1.66556858352E-03
  1.70773265296E-03  1.75096411089E-03  1.79528997839E-03  1.84073796057E-03
  1.88733646389E-03  1.93511461395E-03  1.98410227363E-03  2.03433006182E-03
  2.08582937252E-03  2.13863239448E-03  2.19277213130E-03  2.24828242209E-03
  2.30519796258E-03  2.36355432683E-03  2.42338798948E-03  2.48473634851E-03
  2.54763774865E-03  2.61213150531E-03  2.67825792919E-03  2.74605835146E-03
  2.81557514960E-03  2.88685177386E-03  2.95993277445E-03  3.03486382938E-03
  3.11169177299E-03  3.19046462526E-03  3.27123162178E-03  3.35404324455E-03
  3.43895125353E-03  3.52600871899E-03  3.61527005468E-03  3.70679105184E-03
  3.80062891408E-03  3.89684229310E-03  3.99549132542E-03  4.09663766988E-03
  4.20034454623E-03  4.30667677467E-03  4.41570081628E-03  4.52748481464E-03
  4.64209863840E-03  4.75961392491E-03  4.88010412507E-03  5.00364454917E-03
  5.13031241399E-03  5.26018689108E-03  5.39334915621E-03  5.52988244013E-03
  5.66987208059E-03  5.81340557567E-03  5.96057263847E-03  6.11146525321E-03
  6.26617773268E-03  6.42480677721E-03  6.58745153512E-03  6.75421366468E-03
  6.92519739765E-03  7.10050960442E-03  7.28025986084E-03  7.46456051667E-03
  7.65352676581E-03  7.84727671832E-03  8.04593147424E-03  8.24961519924E-03
  8.45845520229E-03  8.67258201518E-03  8.89212947416E-03  9.11723480351E-03
  9.34803870141E-03  9.58468542781E-03  9.82732289460E-03  1.00761027581E-02
  1.03311805138E-02  1.05927155937E-02  1.08608714657E-02  1.11358157358E-02
  1.14177202533E-02  1.17067612176E-02  1.20031192888E-02  1.23069797003E-02
  1.26185323747E-02  1.29379720426E-02  1.32654983642E-02  1.36013160541E-02
  1.39456350093E-02  1.42986704403E-02  1.46606430059E-02  1.50317789505E-02
  1.54123102464E-02  1.58024747378E-02  1.62025162904E-02  1.66126849431E-02
  1.70332370646E-02  1.74644355138E-02  1.79065498038E-02  1.83598562702E-02
  1.88246382445E-02  1.93011862305E-02  1.97897980862E-02  2.02907792099E-02
  2.08044427311E-02  2.13311097063E-02  2.18711093194E-02  2.24247790879E-02
  2.29924650732E-02  2.35745220977E-02  2.41713139659E-02  2.47832136922E-02
  2.54106037338E-02  2.60538762299E-02  2.67134332468E-02  2.73896870291E-02
  2.80830602573E-02  2.87939863124E-02  2.95229095463E-02  3.02702855597E-02
  3.10365814870E-02  3.18222762880E-02  3.26278610476E-02  3.34538392824E-02
  3.43007272559E-02  3.51690543004E-02  3.60593631488E-02  3.69722102729E-02
  3.79081662320E-02  3.88678160291E-02  3.98517594764E-02  4.08606115706E-02
  4.18950028772E-02  4.29555799244E-02  4.40430056074E-02  4.51579596026E-02
  4.63011387926E-02  4.74732577016E-02  4.86750489420E-02  4.99072636725E-02
  5.11706720674E-02  5.24660637981E-02  5.37942485266E-02  5.51560564115E-02
  5.65523386272E-02  5.79839678955E-02  5.94518390313E-02  6.09568695018E-02
  6.25000000000E-02  6.40821950328E-02  6.57044435235E-02  6.73677594303E-02
  6.90731823797E-02  7.08217783167E-02  7.26146401705E-02  7.44528885383E-02
  7.63376723850E-02  7.82701697620E-02  8.02515885430E-02  8.22831671792E-02
  8.43661754735E-02  8.65019153738E-02  8.86917217871E-02  9.09369634136E-02
  9.32390436026E-02  9.55994012290E-02  9.80195115931E-02  1.00500887343E-01
  1.03045079419E-01  1.05653678024E-01  1.08328313617E-01  1.11070657932E-01
  1.13882425024E-01  1.16765372340E-01  1.19721301813E-01  1.22752060998E-01
  1.25859544217E-01  1.29045693748E-01  1.32312501038E-01  1.35662007949E-01
  1.39096308031E-01  1.42617547833E-01  1.46227928245E-01  1.49929705873E-01
  1.53725194447E-01  1.57616766272E-01  1.61606853707E-01  1.65697950686E-01
  1.69892614279E-01  1.74193466285E-01  1.78603194879E-01  1.83124556283E-01
  1.87760376497E-01  1.92513553057E-01  1.97387056856E-01  2.02383933990E-01
  2.07507307671E-01  2.12760380174E-01  2.18146434841E-01  2.23668838131E-01
  2.29331041726E-01  2.35136584687E-01  2.41089095669E-01  2.47192295183E-01
  2.53449997928E-01  2.59866115172E-01  2.66444657198E-01  2.73189735808E-01
  2.80105566896E-01  2.87196473082E-01  2.94466886412E-01  3.01921351132E-01
  3.09564526525E-01  3.17401189824E-01  3.25436239199E-01  3.33674696817E-01
  3.42121711983E-01  3.50782564356E-01  3.59662667250E-01  3.68767571020E-01
  3.78102966526E-01  3.87674688694E-01  3.97488720163E-01  4.07551195021E-01
  4.17868402642E-01  4.28446791619E-01  4.39292973787E-01  4.50413728364E-01
  4.61816006183E-01  4.73506934040E-01  4.85493819144E-01  4.97784153690E-01
  5.10385619535E-01  5.23306093008E-01  5.36553649824E-01  5.50136570137E-01
  5.64063343715E-01  5.78342675244E-01  5.92983489772E-01  6.07994938285E-01
  6.23386403426E-01  6.39167505362E-01  6.55348107795E-01  6.71938324130E-01
  6.88948523790E-01  7.06389338705E-01  7.24271669951E-01  7.42606694569E-01
  7.61405872544E-01  7.80680953975E-01  8.00443986416E-01  8.20707322406E-01
  8.41483627188E-01  8.62785886629E-01  8.84627415336E-01  9.07021864974E-01
  9.29983232805E-01  9.53525870429E-01  9.77664492762E-01  1.00241418723E+00
  1.02779042319E+00  1.05380906163E+00  1.08048636504E+00  1.10783900759E+00
  1.13588408559E+00  1.16463912812E+00  1.19412210801E+00  1.22435145310E+00
  1.25534605770E+00  1.28712529445E+00  1.31970902641E+00  1.35311761947E+00
  1.38737195509E+00  1.42249344335E+00  1.45850403631E+00  1.49542624177E+00
  1.53328313732E+00  1.57209838474E+00  1.61189624482E+00  1.65270159254E+00
  1.69453993254E+00  1.73743741517E+00  1.78142085274E+00  1.82651773633E+00
  1.87275625296E+00  1.92016530322E+00  1.96877451930E+00  2.01861428354E+00
  2.06971574742E+00  2.12211085102E+00  2.17583234298E+00  2.23091380098E+00
  2.28738965273E+00  2.34529519748E+00  2.40466662806E+00  2.46554105358E+00
  2.52795652250E+00  2.59195204655E+00  2.65756762500E+00  2.72484426973E+00
  2.79382403083E+00  2.86455002290E+00  2.93706645197E+00  3.01141864319E+00
  3.08765306910E+00  3.16581737868E+00  3.24596042718E+00  3.32813230661E+00
  3.41238437707E+00  3.49876929885E+00  3.58734106534E+00  3.67815503677E+00
  3.77126797484E+00  3.86673807815E+00  3.96462501863E+00  4.06498997881E+00
  4.16789569006E+00  4.27340647178E+00  4.38158827167E+00  4.49250870685E+00
  4.60623710622E+00  4.72284455373E+00  4.84240393283E+00  4.96498997202E+00
  5.09067929156E+00  5.21955045138E+00  5.35168400014E+00  5.48716252561E+00
  5.62607070628E+00  5.76849536429E+00  5.91452551968E+00  6.06425244606E+00
  6.21776972762E+00  6.37517331767E+00  6.53656159857E+00  6.70203544325E+00
  6.87169827826E+00  7.04565614838E+00  7.22401778295E+00  7.40689466380E+00
  7.59440109492E+00  7.78665427395E+00  7.98377436538E+00  8.18588457568E+00
  8.39311123031E+00  8.60558385268E+00  8.82343524509E+00  9.04680157176E+00
  9.27582244391E+00  9.51064100704E+00  9.75140403040E+00  9.99826199871E+00
  1.02513692062E+01  1.05108838532E+01  1.07769681448E+01  1.10497883923E+01
  1.13295151172E+01  1.16163231579E+01  1.19103917787E+01  1.22119047820E+01
  1.25210506234E+01  1.28380225290E+01  1.31630186167E+01  1.34962420194E+01
  1.38379010128E+01  1.41882091447E+01  1.45473853692E+01  1.49156541832E+01
  1.52932457665E+01  1.56803961263E+01  1.60773472441E+01  1.64843472273E+01
  1.69016504641E+01  1.73295177827E+01  1.77682166140E+01  1.82180211591E+01
  1.86792125604E+01  1.91520790777E+01  1.96369162679E+01  2.01340271699E+01
  2.06437224944E+01  2.11663208174E+01  2.17021487799E+01  2.22515412919E+01
  2.28148417416E+01  2.33924022100E+01  2.39845836913E+01  2.45917563182E+01
  2.52142995933E+01  2.58526026264E+01  2.65070643778E+01  2.71780939073E+01
  2.78661106302E+01  2.85715445793E+01  2.92948366739E+01  3.00364389950E+01
  3.07968150683E+01  3.15764401536E+01  3.23758015418E+01  3.31953988599E+01
  3.40357443829E+01  3.48973633541E+01  3.57807943134E+01  3.66865894339E+01
  3.76153148670E+01  3.85675510964E+01  3.95438933008E+01  4.05449517257E+01
  4.15713520653E+01  4.26237358532E+01  4.37027608635E+01  4.48091015220E+01
  4.59434493276E+01  4.71065132847E+01  4.82990203459E+01  4.95217158672E+01
  5.07753640730E+01  5.20607485342E+01  5.33786726579E+01  5.47299601897E+01
  5.61154557282E+01  5.75360252532E+01  5.89925566670E+01
  </PP_R>
  <PP_RAB>
  1.05280421861E-05  1.07945608429E-05  1.10678264516E-05  1.13480098122E-05
  1.16352860483E-05  1.19298347170E-05  1.22318399207E-05  1.25414904225E-05
  1.28589797641E-05  1.31845063866E-05  1.35182737549E-05  1.38604904843E-05
  1.42113704714E-05  1.45711330277E-05  1.49400030165E-05  1.53182109935E-05
  1.57059933510E-05  1.61035924656E-05  1.65112568498E-05  1.69292413069E-05
  1.73578070910E-05  1.77972220696E-05  1.82477608912E-05  1.87097051575E-05
  1.91833435985E-05  1.96689722538E-05  2.01668946570E-05  2.06774220258E-05
  2.12008734566E-05  2.17375761233E-05  2.22878654828E-05  2.28520854837E-05
  2.34305887820E-05  2.40237369610E-05  2.46319007576E-05  2.52554602940E-05
  2.58948053153E-05  2.65503354328E-05  2.72224603742E-05  2.79116002396E-05
  2.86181857636E-05  2.93426585854E-05  3.00854715240E-05  3.08470888617E-05
  3.16279866341E-05  3.24286529277E-05  3.32495881850E-05  3.40913055173E-05
  3.49543310253E-05  3.58392041280E-05  3.67464779000E-05  3.76767194169E-05
  3.86305101099E-05  3.96084461293E-05  4.06111387168E-05  4.16392145881E-05
  4.26933163239E-05  4.37741027722E-05  4.48822494597E-05  4.60184490142E-05
  4.71834115974E-05  4.83778653487E-05  4.96025568407E-05  5.08582515455E-05
  5.21457343130E-05  5.34658098620E-05  5.48193032826E-05  5.62070605522E-05
  5.76299490644E-05  5.90888581708E-05  6.05846997371E-05  6.21184087128E-05
  6.36909437162E-05  6.53032876327E-05  6.69564482298E-05  6.86514587866E-05
  7.03893787399E-05  7.21712943464E-05  7.39983193612E-05  7.58715957344E-05
  7.77922943248E-05  7.97616156315E-05  8.17807905444E-05  8.38510811136E-05
  8.59737813381E-05  8.81502179747E-05  9.03817513669E-05  9.26697762960E-05
  9.50157228519E-05  9.74210573276E-05  9.98872831355E-05  1.02415941747E-04
  1.05008613656E-04  1.07666919367E-04  1.10392520407E-04  1.13187120366E-04
  1.16052465960E-04  1.18990348123E-04  1.22002603127E-04  1.25091113729E-04
  1.28257810350E-04  1.31504672277E-04  1.34833728905E-04  1.38247061003E-04
  1.41746802015E-04  1.45335139392E-04  1.49014315962E-04  1.52786631330E-04
  1.56654443317E-04  1.60620169430E-04  1.64686288378E-04  1.68855341617E-04
  1.73129934941E-04  1.77512740111E-04  1.82006496521E-04  1.86614012917E-04
  1.91338169145E-04  1.96181917958E-04  2.01148286856E-04  2.06240379981E-04
  2.11461380057E-04  2.16814550380E-04  2.22303236854E-04  2.27930870088E-04
  2.33700967535E-04  2.39617135695E-04  2.45683072365E-04  2.51902568953E-04
  2.58279512846E-04  2.64817889843E-04  2.71521786641E-04  2.78395393395E-04
  2.85443006332E-04  2.92669030441E-04  3.00077982220E-04  3.07674492507E-04
  3.15463309367E-04  3.23449301064E-04  3.31637459104E-04  3.40032901352E-04
  3.48640875232E-04  3.57466761008E-04  3.66516075147E-04  3.75794473763E-04
  3.85307756159E-04  3.95061868445E-04  4.05062907259E-04  4.15317123576E-04
  4.25830926616E-04  4.36610887846E-04  4.47663745094E-04  4.58996406756E-04
  4.70615956113E-04  4.82529655763E-04  4.94744952155E-04  5.07269480247E-04
  5.20111068278E-04  5.33277742658E-04  5.46777732986E-04  5.60619477197E-04
  5.74811626830E-04  5.89363052442E-04  6.04282849148E-04  6.19580342305E-04
  6.35265093345E-04  6.51346905748E-04  6.67835831170E-04  6.84742175726E-04
  7.02076506433E-04  7.19849657811E-04  7.38072738658E-04  7.56757138993E-04
  7.75914537174E-04  7.95556907199E-04  8.15696526189E-04  8.36345982061E-04
  8.57518181397E-04  8.79226357511E-04  9.01484078720E-04  9.24305256823E-04
  9.47704155801E-04  9.71695400727E-04  9.96293986909E-04  1.02151528927E-03
  1.04737507193E-03  1.07388949811E-03  1.10107514019E-03  1.12894899007E-03
  1.15752846982E-03  1.18683144254E-03  1.21687622355E-03  1.24768159181E-03
  1.27926680168E-03  1.31165159495E-03  1.34485621316E-03  1.37890141029E-03
  1.41380846568E-03  1.44959919739E-03  1.48629597578E-03  1.52392173754E-03
  1.56250000000E-03  1.60205487582E-03  1.64261108809E-03  1.68419398576E-03
  1.72682955949E-03  1.77054445792E-03  1.81536600426E-03  1.86132221346E-03
  1.90844180963E-03  1.95675424405E-03  2.00628971357E-03  2.05707917948E-03
  2.10915438684E-03  2.16254788434E-03  2.21729304468E-03  2.27342408534E-03
  2.33097609006E-03  2.38998503072E-03  2.45048778983E-03  2.51252218357E-03
  2.57612698547E-03  2.64134195059E-03  2.70820784042E-03  2.77676644830E-03
  2.84706062561E-03  2.91913430849E-03  2.99303254533E-03  3.06880152495E-03
  3.14648860542E-03  3.22614234370E-03  3.30781252596E-03  3.39155019872E-03
  3.47740770077E-03  3.56543869583E-03  3.65569820613E-03  3.74824264682E-03
  3.84312986118E-03  3.94041915681E-03  4.04017134268E-03  4.14244876716E-03
  4.24731535697E-03  4.35483665713E-03  4.46507987197E-03  4.57811390708E-03
  4.69400941242E-03  4.81283882643E-03  4.93467642139E-03  5.05959834975E-03
  5.18768269178E-03  5.31900950436E-03  5.45366087103E-03  5.59172095328E-03
  5.73327604316E-03  5.87841461719E-03  6.02722739171E-03  6.17980737956E-03
  6.33624994819E-03  6.49665287931E-03  6.66111642995E-03  6.82974339520E-03
  7.00263917240E-03  7.17991182704E-03  7.36167216030E-03  7.54803377830E-03
  7.73911316312E-03  7.93502974559E-03  8.13590597997E-03  8.34186742043E-03
  8.55304279957E-03  8.76956410890E-03  8.99156668126E-03  9.21918927550E-03
  9.45257416315E-03  9.69186721735E-03  9.93721800407E-03  1.01887798755E-02
  1.04467100661E-02  1.07111697905E-02  1.09823243447E-02  1.12603432091E-02
  1.15454001546E-02  1.18376733510E-02  1.21373454786E-02  1.24446038422E-02
  1.27596404884E-02  1.30826523252E-02  1.34138412456E-02  1.37534142534E-02
  1.41015835929E-02  1.44585668811E-02  1.48245872443E-02  1.51998734571E-02
  1.55846600856E-02  1.59791876340E-02  1.63837026949E-02  1.67984581032E-02
  1.72237130948E-02  1.76597334676E-02  1.81067917488E-02  1.85651673642E-02
  1.90351468136E-02  1.95170238494E-02  2.00110996604E-02  2.05176830601E-02
  2.10370906797E-02  2.15696471657E-02  2.21156853834E-02  2.26755466244E-02
  2.32495808201E-02  2.38381467607E-02  2.44416123190E-02  2.50603546807E-02
  2.56947605798E-02  2.63452265408E-02  2.70121591259E-02  2.76959751898E-02
  2.83971021398E-02  2.91159782030E-02  2.98530527004E-02  3.06087863275E-02
  3.13836514425E-02  3.21781323612E-02  3.29927256602E-02  3.38279404867E-02
  3.46842988773E-02  3.55623360836E-02  3.64626009077E-02  3.73856560443E-02
  3.83320784330E-02  3.93024596185E-02  4.02974061206E-02  4.13175398134E-02
  4.23634983135E-02  4.34359353792E-02  4.45355213184E-02  4.56629434082E-02
  4.68189063241E-02  4.80041325805E-02  4.92193629824E-02  5.04653570885E-02
  5.17428936855E-02  5.30527712754E-02  5.43958085744E-02  5.57728450245E-02
  5.71847413182E-02  5.86323799369E-02  6.01166657016E-02  6.16385263394E-02
  6.31989130626E-02  6.47988011638E-02  6.64391906251E-02  6.81211067433E-02
  6.98456007708E-02  7.16137505724E-02  7.34266612993E-02  7.52854660798E-02
  7.71913267274E-02  7.91454344669E-02  8.11490106794E-02  8.32033076652E-02
  8.53096094268E-02  8.74692324713E-02  8.96835266335E-02  9.19538759193E-02
  9.42816993709E-02  9.66684519537E-02  9.91156254658E-02  1.01624749470E-01
  1.04197392251E-01  1.06835161795E-01  1.09539706792E-01  1.12312717671E-01
  1.15155927656E-01  1.18071113843E-01  1.21060098321E-01  1.24124749300E-01
  1.27266982289E-01  1.30488761284E-01  1.33792100003E-01  1.37179063140E-01
  1.40651767657E-01  1.44212384107E-01  1.47863137992E-01  1.51606311151E-01
  1.55444243191E-01  1.59379332942E-01  1.63414039964E-01  1.67550886081E-01
  1.71792456956E-01  1.76141403709E-01  1.80600444574E-01  1.85172366595E-01
  1.89860027373E-01  1.94666356849E-01  1.99594359134E-01  2.04647114392E-01
  2.09827780758E-01  2.15139596317E-01  2.20585881127E-01  2.26170039294E-01
  2.31895561098E-01  2.37766025176E-01  2.43785100760E-01  2.49956549968E-01
  2.56284230156E-01  2.62772096331E-01  2.69424203620E-01  2.76244709807E-01
  2.83237877930E-01  2.90408078947E-01  2.97759794467E-01  3.05297619551E-01
  3.13026265586E-01  3.20950563226E-01  3.29075465417E-01  3.37406050485E-01
  3.45947525319E-01  3.54705228618E-01  3.63684634231E-01  3.72891354579E-01
  3.82331144163E-01  3.92009903158E-01  4.01933681103E-01  4.12108680683E-01
  4.22541261603E-01  4.33237944567E-01  4.44205415350E-01  4.55450528977E-01
  4.66980314011E-01  4.78801976943E-01  4.90922906696E-01  5.03350679248E-01
  5.16093062359E-01  5.29158020434E-01  5.42553719498E-01  5.56288532298E-01
  5.70371043540E-01  5.84810055250E-01  5.99614592283E-01  6.14793907955E-01
  6.30357489832E-01  6.46315065661E-01  6.62676609445E-01  6.79452347682E-01
  6.96652765754E-01  7.14288614483E-01  7.32370916848E-01  7.50910974876E-01
  7.69920376708E-01  7.89411003839E-01  8.09395038544E-01  8.29884971497E-01
  8.50893609572E-01  8.72434083852E-01  8.94519857834E-01  9.17164735846E-01
  9.40382871675E-01  9.64188777411E-01  9.88597332519E-01  1.01362379314E+00
  1.03928380163E+00  1.06559339633E+00  1.09256902159E+00  1.12022753805E+00
  1.14858623319E+00  1.17766283212E+00  1.20747550865E+00  1.23804289668E+00
  1.26938410182E+00  1.30151871335E+00  1.33446681645E+00  1.36824900474E+00
  1.40288639320E+00  1.43840063133E+00  1.47481391667E+00
  </PP_RAB>
</PP_MESH>


<PP_LOCAL>
 -1.71889659910E+01 -1.71889662430E+01 -1.71889665070E+01 -1.71889667850E+01
 -1.71889670770E+01 -1.71889673840E+01 -1.71889677070E+01 -1.71889680460E+01
 -1.71889684030E+01 -1.71889687780E+01 -1.71889691720E+01 -1.71889695860E+01
 -1.71889700220E+01 -1.71889704800E+01 -1.71889709620E+01 -1.71889714680E+01
 -1.71889720000E+01 -1.71889725590E+01 -1.71889731470E+01 -1.71889737660E+01
 -1.71889744160E+01 -1.71889750990E+01 -1.71889758170E+01 -1.71889765720E+01
 -1.71889773660E+01 -1.71889782010E+01 -1.71889790780E+01 -1.71889800010E+01
 -1.71889809700E+01 -1.71889819900E+01 -1.71889830610E+01 -1.71889841880E+01
 -1.71889853720E+01 -1.71889866170E+01 -1.71889879260E+01 -1.71889893020E+01
 -1.71889907480E+01 -1.71889922690E+01 -1.71889938680E+01 -1.71889955480E+01
 -1.71889973150E+01 -1.71889991730E+01 -1.71890011250E+01 -1.71890031780E+01
 -1.71890053360E+01 -1.71890076040E+01 -1.71890099890E+01 -1.71890124970E+01
 -1.71890151320E+01 -1.71890179030E+01 -1.71890208160E+01 -1.71890238780E+01
 -1.71890270980E+01 -1.71890304820E+01 -1.71890340400E+01 -1.71890377800E+01
 -1.71890417120E+01 -1.71890458460E+01 -1.71890501910E+01 -1.71890547590E+01
 -1.71890595620E+01 -1.71890646110E+01 -1.71890699180E+01 -1.71890754980E+01
 -1.71890813640E+01 -1.71890875300E+01 -1.71890940130E+01 -1.71891008280E+01
 -1.71891079920E+01 -1.71891155240E+01 -1.71891234420E+01 -1.71891317650E+01
 -1.71891405160E+01 -1.71891497150E+01 -1.71891593860E+01 -1.71891695520E+01
 -1.71891802400E+01 -1.71891914760E+01 -1.71892032870E+01 -1.71892157050E+01
 -1.71892287580E+01 -1.71892424810E+01 -1.71892569080E+01 -1.71892720740E+01
 -1.71892880180E+01 -1.71893047790E+01 -1.71893223990E+01 -1.71893409220E+01
 -1.71893603950E+01 -1.71893808670E+01 -1.71894023880E+01 -1.71894250120E+01
 -1.71894487950E+01 -1.71894737980E+01 -1.71895000830E+01 -1.71895277150E+01
 -1.71895567630E+01 -1.71895873000E+01 -1.71896194030E+01 -1.71896531510E+01
 -1.71896886290E+01 -1.71897259260E+01 -1.71897651340E+01 -1.71898063520E+01
 -1.71898496830E+01 -1.71898952340E+01 -1.71899431200E+01 -1.71899934610E+01
 -1.71900463810E+01 -1.71901020130E+01 -1.71901604970E+01 -1.71902219780E+01
 -1.71902866090E+01 -1.71903545530E+01 -1.71904259780E+01 -1.71905010630E+01
 -1.71905799960E+01 -1.71906629730E+01 -1.71907502020E+01 -1.71908419000E+01
 -1.71909382970E+01 -1.71910396320E+01 -1.71911461580E+01 -1.71912581420E+01
 -1.71913758620E+01 -1.71914996130E+01 -1.71916297020E+01 -1.71917664540E+01
 -1.71919102110E+01 -1.71920613300E+01 -1.71922201870E+01 -1.71923871800E+01
 -1.71925627240E+01 -1.71927472550E+01 -1.71929412340E+01 -1.71931451440E+01
 -1.71933594920E+01 -1.71935848120E+01 -1.71938216640E+01 -1.71940706380E+01
 -1.71943323520E+01 -1.71946074580E+01 -1.71948966380E+01 -1.71952006120E+01
 -1.71955201350E+01 -1.71958559990E+01 -1.71962090390E+01 -1.71965801300E+01
 -1.71969701930E+01 -1.71973801950E+01 -1.71978111510E+01 -1.71982641290E+01
 -1.71987402510E+01 -1.71992406940E+01 -1.71997666960E+01 -1.72003195570E+01
 -1.72009006430E+01 -1.72015113880E+01 -1.72021532980E+01 -1.72028279570E+01
 -1.72035370250E+01 -1.72042822490E+01 -1.72050654600E+01 -1.72058885840E+01
 -1.72067536420E+01 -1.72076627550E+01 -1.72086181510E+01 -1.72096221680E+01
 -1.72106772620E+01 -1.72117860090E+01 -1.72129511140E+01 -1.72141754150E+01
 -1.72154618910E+01 -1.72168136670E+01 -1.72182340230E+01 -1.72197263980E+01
 -1.72212944010E+01 -1.72229418170E+01 -1.72246726150E+01 -1.72264909570E+01
 -1.72284012080E+01 -1.72304079420E+01 -1.72325159530E+01 -1.72347302680E+01
 -1.72370561500E+01 -1.72394991170E+01 -1.72420649460E+01 -1.72447596880E+01
 -1.72475896780E+01 -1.72505615480E+01 -1.72536822400E+01 -1.72569590150E+01
 -1.72603994710E+01 -1.72640115530E+01 -1.72678035660E+01 -1.72717841930E+01
 -1.72759625060E+01 -1.72803479780E+01 -1.72849505050E+01 -1.72897804130E+01
 -1.72948484780E+01 -1.73001659370E+01 -1.73057445070E+01 -1.73115963960E+01
 -1.73177343200E+01 -1.73241715170E+01 -1.73309217570E+01 -1.73379993650E+01
 -1.73454192220E+01 -1.73531967870E+01 -1.73613481010E+01 -1.73698898040E+01
 -1.73788391380E+01 -1.73882139560E+01 -1.73980327300E+01 -1.74083145530E+01
 -1.74190791390E+01 -1.74303468270E+01 -1.74421385710E+01 -1.74544759380E+01
 -1.74673810940E+01 -1.74808767930E+01 -1.74949863580E+01 -1.75097336520E+01
 -1.75251430600E+01 -1.75412394460E+01 -1.75580481160E+01 -1.75755947740E+01
 -1.75939054620E+01 -1.76130065060E+01 -1.76329244430E+01 -1.76536859410E+01
 -1.76753177170E+01 -1.76978464380E+01 -1.77212986140E+01 -1.77457004850E+01
 -1.77710778910E+01 -1.77974561380E+01 -1.78248598470E+01 -1.78533127970E+01
 -1.78828377560E+01 -1.79134563030E+01 -1.79451886380E+01 -1.79780533870E+01
 -1.80120673920E+01 -1.80472455060E+01 -1.80836003720E+01 -1.81211422040E+01
 -1.81598785650E+01 -1.81998141490E+01 -1.82409505570E+01 -1.82832860900E+01
 -1.83268155430E+01 -1.83715300100E+01 -1.84174167000E+01 -1.84644587760E+01
 -1.85126351920E+01 -1.85619205660E+01 -1.86122850470E+01 -1.86636942030E+01
 -1.87161089100E+01 -1.87694852360E+01 -1.88237743040E+01 -1.88789221240E+01
 -1.89348693600E+01 -1.89915510110E+01 -1.90488959640E+01 -1.91068263770E+01
 -1.91652568250E+01 -1.92240931630E+01 -1.92832310030E+01 -1.93425537460E+01
 -1.94019300420E+01 -1.94612105910E+01 -1.95202241560E+01 -1.95787726710E+01
 -1.96366253280E+01 -1.96935115190E+01 -1.97491125370E+01 -1.98030519740E+01
 -1.98548847650E+01 -1.99040849020E+01 -1.99500319320E+01 -1.99919963950E+01
 -2.00291245490E+01 -2.00604228000E+01 -2.00847424730E+01 -2.01007657240E+01
 -2.01069935960E+01 -2.01017374450E+01 -2.00831151690E+01 -2.00490538600E+01
 -1.99973006390E+01 -1.99254435590E+01 -1.98309443830E+01 -1.97111849760E+01
 -1.95635286770E+01 -1.93853975610E+01 -1.91743657410E+01 -1.89282678960E+01
 -1.86453209820E+01 -1.83242556560E+01 -1.79644523120E+01 -1.75660749570E+01
 -1.71301945140E+01 -1.66588917360E+01 -1.61553289240E+01 -1.56237793470E+01
 -1.50696038460E+01 -1.44991657780E+01 -1.39196784290E+01 -1.33389832520E+01
 -1.27652627300E+01 -1.22066979820E+01 -1.16710880190E+01 -1.11654539840E+01
 -1.06956571340E+01 -1.02660625780E+01 -9.87928124560E+00 -9.53601934240E+00
 -9.23505744840E+00 -8.97337060110E+00 -8.74638697650E+00 -8.54836758470E+00
 -8.37287467820E+00 -8.21328454720E+00 -8.06329319910E+00 -7.91736270690E+00
 -7.77106252130E+00 -7.62127328600E+00 -7.46623895730E+00 -7.30547348430E+00
 -7.13954753760E+00 -6.96979543630E+00 -6.79798995410E+00 -6.62603195730E+00
 -6.45569337930E+00 -6.28843803090E+00 -6.12532838390E+00 -5.96701122470E+00
 -5.81376383320E+00 -5.66557673570E+00 -5.52224921080E+00 -5.38347836670E+00
 -5.24892969790E+00 -5.11828440240E+00 -4.99126467660E+00 -4.86764183900E+00
 -4.74723339960E+00 -4.62989467870E+00 -4.51550907900E+00 -4.40397941150E+00
 -4.29522125360E+00 -4.18915839220E+00 -4.08571995530E+00 -3.98483872300E+00
 -3.88645017550E+00 -3.79049196390E+00 -3.69690360970E+00 -3.60562632170E+00
 -3.51660287720E+00 -3.42977753600E+00 -3.34509597530E+00 -3.26250523730E+00
 -3.18195368520E+00 -3.10339096420E+00 -3.02676796630E+00 -2.95203679820E+00
 -2.87915074970E+00 -2.80806426430E+00 -2.73873291050E+00 -2.67111335400E+00
 -2.60516333030E+00 -2.54084161850E+00 -2.47810801550E+00 -2.41692331050E+00
 -2.35724926140E+00 -2.29904856980E+00 -2.24228485830E+00 -2.18692264790E+00
 -2.13292733530E+00 -2.08026517180E+00 -2.02890324170E+00 -1.97880944220E+00
 -1.92995246300E+00 -1.88230176690E+00 -1.83582757070E+00 -1.79050082640E+00
 -1.74629320350E+00 -1.70317707070E+00 -1.66112547900E+00 -1.62011214480E+00
 -1.58011143340E+00 -1.54109834310E+00 -1.50304848950E+00 -1.46593809000E+00
 -1.42974394960E+00 -1.39444344570E+00 -1.36001451440E+00 -1.32643563640E+00
 -1.29368582380E+00 -1.26174460700E+00 -1.23059202170E+00 -1.20020859640E+00
 -1.17057534060E+00 -1.14167373240E+00 -1.11348570760E+00 -1.08599364750E+00
 -1.05918036880E+00 -1.03302911230E+00 -1.00752353260E+00 -9.82647687990E-01
 -9.58386030130E-01 -9.34723394730E-01 -9.11644991890E-01 -8.89136396840E-01
 -8.67183540980E-01 -8.45772703070E-01 -8.24890500620E-01 -8.04523881600E-01
 -7.84660116190E-01 -7.65286788890E-01 -7.46391790750E-01 -7.27963311770E-01
 -7.09989833560E-01 -6.92460122120E-01 -6.75363220780E-01 -6.58688443450E-01
 -6.42425367830E-01 -6.26563828990E-01 -6.11093912930E-01 -5.96005950460E-01
 -5.81290511110E-01 -5.66938397260E-01 -5.52940638350E-01 -5.39288485350E-01
 -5.25973405200E-01 -5.12987075560E-01 -5.00321379530E-01 -4.87968400660E-01
 -4.75920417920E-01 -4.64169900930E-01 -4.52709505250E-01 -4.41532067740E-01
 -4.30630602140E-01 -4.19998294690E-01 -4.09628499850E-01 -3.99514736150E-01
 -3.89650682170E-01 -3.80030172550E-01 -3.70647194160E-01 -3.61495882330E-01
 -3.52570517190E-01 -3.43865520100E-01 -3.35375450160E-01 -3.27095000790E-01
 -3.19018996450E-01 -3.11142389360E-01 -3.03460256400E-01 -2.95967795970E-01
 -2.88660325050E-01 -2.81533276230E-01 -2.74582194880E-01 -2.67802736330E-01
 -2.61190663210E-01 -2.54741842760E-01 -2.48452244250E-01 -2.42317936480E-01
 -2.36335085310E-01 -2.30499951270E-01 -2.24808887190E-01 -2.19258335990E-01
 -2.13844828390E-01 -2.08564980760E-01 -2.03415493040E-01
</PP_LOCAL>


<PP_NONLOCAL>
  <PP_BETA>
    1    0             Beta    L
   405
  2.56119131665E-03  2.62602823667E-03  2.69250651523E-03  2.76066770401E-03
  2.83055440617E-03  2.90221030398E-03  2.97568018501E-03  3.05100997079E-03
  3.12824674580E-03  3.20743878611E-03  3.28863558996E-03  3.37188790884E-03
  3.45724777892E-03  3.54476855400E-03  3.63450493813E-03  3.72651302059E-03
  3.82085031049E-03  3.91757577315E-03  4.01674986627E-03  4.11843457848E-03
  4.22269346725E-03  4.32959169939E-03  4.43919609197E-03  4.55157515271E-03
  4.66679912462E-03  4.78494002881E-03  4.90607170895E-03  5.03026987936E-03
  5.15761217026E-03  5.28817817807E-03  5.42204951382E-03  5.55930985532E-03
  5.70004499800E-03  5.84434291003E-03  5.99229378694E-03  6.14399010727E-03
  6.29952669099E-03  6.45900075972E-03  6.62251199510E-03  6.79016260330E-03
  6.96205737877E-03  7.13830376840E-03  7.31901193931E-03  7.50429484942E-03
  7.69426831535E-03  7.88905108628E-03  8.08876491888E-03  8.29353465280E-03
  8.50348828675E-03  8.71875706350E-03  8.93947554657E-03  9.16578170774E-03
  9.39781701338E-03  9.63572650989E-03  9.87965891884E-03  1.01297667264E-02
  1.03862062812E-02  1.06491378904E-02  1.09187259205E-02  1.11951389019E-02
  1.14785496326E-02  1.17691352856E-02  1.20670775218E-02  1.23725626037E-02