<PP_INFO>
Generated using ld1 code (maybe, or maybe not)                                  
Author: unknown    Generation date: as well                                     
Info: automatically converted from PWSCF format                                 
    0        The Pseudo was generated with a Non-Relativistic Calculation
nl pn  l   occ               Rcut            Rcut US             E pseu
*S  0  0  2.00      0.00000000000      0.00000000000      0.00000000000
</PP_INFO>


<PP_HEADER>
   0                   Version Number
  Mg                   Element
   NC                  Norm - Conserving pseudopotential
    F                  Nonlinear Core Correction
SLA  PZ   NOGX NOGC    PZ   Exchange-Correlation functional
    2.00000000000      Z valence
    0.00000000000      Total energy
  0.0000000  0.0000000 Suggested cutoff for wfc and rho
   -1                  Max angular momentum component
 1140                  Number of points in mesh
    1    0             Number of Wavefunctions, Number of Projectors
 Wavefunctions         nl  l   occ
                       *S  0  2.00
</PP_HEADER>


<PP_MESH>
  <PP_R>
  4.36790205630E-05  4.42505547534E-05  4.48295673930E-05  4.54161563361E-05
  4.60104207178E-05  4.66124609700E-05  4.72223788391E-05  4.78402774027E-05
  4.84662610869E-05  4.91004356847E-05  4.97429083729E-05  5.03937877311E-05
  5.10531837593E-05  5.17212078971E-05  5.23979730421E-05  5.30835935693E-05
  5.37781853501E-05  5.44818657723E-05  5.51947537594E-05  5.59169697913E-05
  5.66486359242E-05  5.73898758114E-05  5.81408147242E-05  5.89015795730E-05
  5.96722989290E-05  6.04531030456E-05  6.12441238804E-05  6.20454951180E-05
  6.28573521918E-05  6.36798323079E-05  6.45130744671E-05  6.53572194895E-05
  6.62124100375E-05  6.70787906404E-05  6.79565077186E-05  6.88457096083E-05
  6.97465465869E-05  7.06591708978E-05  7.15837367767E-05  7.25204004775E-05
  7.34693202987E-05  7.44306566098E-05  7.54045718790E-05  7.63912307004E-05
  7.73907998216E-05  7.84034481721E-05  7.94293468920E-05  8.04686693605E-05
  8.15215912258E-05  8.25882904339E-05  8.36689472597E-05  8.47637443367E-05
  8.58728666883E-05  8.69965017587E-05  8.81348394450E-05  8.92880721289E-05
  9.04563947095E-05  9.16400046362E-05  9.28391019417E-05  9.40538892764E-05
  9.52845719422E-05  9.65313579275E-05  9.77944579421E-05  9.90740854528E-05
  1.00370456720E-04  1.01683790833E-04  1.03014309748E-04  1.04362238328E-04
  1.05727804374E-04  1.07111238670E-04  1.08512775021E-04  1.09932650289E-04
  1.11371104436E-04  1.12828380566E-04  1.14304724960E-04  1.15800387124E-04
  1.17315619830E-04  1.18850679155E-04  1.20405824527E-04  1.21981318770E-04
  1.23577428147E-04  1.25194422403E-04  1.26832574814E-04  1.28492162233E-04
  1.30173465132E-04  1.31876767657E-04  1.33602357670E-04  1.35350526799E-04
  1.37121570489E-04  1.38915788051E-04  1.40733482712E-04  1.42574961666E-04
  1.44440536129E-04  1.46330521385E-04  1.48245236848E-04  1.50185006109E-04
  1.52150156994E-04  1.54141021617E-04  1.56157936439E-04  1.58201242325E-04
  1.60271284597E-04  1.62368413097E-04  1.64492982246E-04  1.66645351100E-04
  1.68825883415E-04  1.71034947707E-04  1.73272917312E-04  1.75540170452E-04
  1.77837090298E-04  1.80164065036E-04  1.82521487930E-04  1.84909757390E-04
  1.87329277039E-04  1.89780455782E-04  1.92263707873E-04  1.94779452989E-04
  1.97328116296E-04  1.99910128524E-04  2.02525926040E-04  2.05175950919E-04
  2.07860651022E-04  2.10580480070E-04  2.13335897720E-04  2.16127369645E-04
  2.18955367609E-04  2.21820369552E-04  2.24722859666E-04  2.27663328477E-04
  2.30642272933E-04  2.33660196482E-04  2.36717609160E-04  2.39815027678E-04
  2.42952975506E-04  2.46131982965E-04  2.49352587315E-04  2.52615332846E-04
  2.55920770969E-04  2.59269460312E-04  2.62661966811E-04  2.66098863807E-04
  2.69580732144E-04  2.73108160267E-04  2.76681744319E-04  2.80302088244E-04
  2.83969803890E-04  2.87685511108E-04  2.91449837862E-04  2.95263420332E-04
  2.99126903024E-04  3.03040938873E-04  3.07006189363E-04  3.11023324630E-04
  3.15093023578E-04  3.19215973998E-04  3.23392872677E-04  3.27624425521E-04
  3.31911347673E-04  3.36254363632E-04  3.40654207379E-04  3.45111622498E-04
  3.49627362303E-04  3.54202189964E-04  3.58836878639E-04  3.63532211599E-04
  3.68288982369E-04  3.73107994853E-04  3.77990063477E-04  3.82936013321E-04
  3.87946680263E-04  3.93022911116E-04  3.98165563778E-04  4.03375507367E-04
  4.08653622377E-04  4.14000800822E-04  4.19417946388E-04  4.24905974584E-04
  4.30465812902E-04  4.36098400967E-04  4.41804690700E-04  4.47585646476E-04
  4.53442245293E-04  4.59375476928E-04  4.65386344112E-04  4.71475862695E-04
  4.77645061822E-04  4.83894984101E-04  4.90226685784E-04  4.96641236944E-04
  5.03139721655E-04  5.09723238176E-04  5.16392899138E-04  5.23149831728E-04
  5.29995177886E-04  5.36930094490E-04  5.43955753558E-04  5.51073342443E-04
  5.58284064034E-04  5.65589136961E-04  5.72989795798E-04  5.80487291275E-04
  5.88082890485E-04  5.95777877104E-04  6.03573551602E-04  6.11471231466E-04
  6.19472251424E-04  6.27577963667E-04  6.35789738080E-04  6.44108962471E-04
  6.52537042811E-04  6.61075403463E-04  6.69725487432E-04  6.78488756603E-04
  6.87366691988E-04  6.96360793980E-04  7.05472582604E-04  7.14703597773E-04
  7.24055399552E-04  7.33529568416E-04  7.43127705523E-04  7.52851432981E-04
  7.62702394124E-04  7.72682253786E-04  7.82792698588E-04  7.93035437219E-04
  8.03412200727E-04  8.13924742809E-04  8.24574840109E-04  8.35364292520E-04
  8.46294923485E-04  8.57368580306E-04  8.68587134458E-04  8.79952481903E-04
  8.91466543411E-04  9.03131264887E-04  9.14948617697E-04  9.26920599001E-04
  9.39049232092E-04  9.51336566738E-04  9.63784679528E-04  9.76395674223E-04
  9.89171682111E-04  1.00211486237E-03  1.01522740242E-03  1.02851151832E-03
  1.04196945512E-03  1.05560348723E-03  1.06941591885E-03  1.08340908430E-03
  1.09758534846E-03  1.11194710716E-03  1.12649678757E-03  1.14123684862E-03
  1.15616978141E-03  1.17129810964E-03  1.18662439004E-03  1.20215121279E-03
  1.21788120196E-03  1.23381701595E-03  1.24996134795E-03  1.26631692639E-03
  1.28288651541E-03  1.29967291530E-03  1.31667896301E-03  1.33390753259E-03
  1.35136153573E-03  1.36904392218E-03  1.38695768031E-03  1.40510583759E-03
  1.42349146110E-03  1.44211765806E-03  1.46098757633E-03  1.48010440498E-03
  1.49947137480E-03  1.51909175885E-03  1.53896887302E-03  1.55910607659E-03
  1.57950677281E-03  1.60017440942E-03  1.62111247932E-03  1.64232452109E-03
  1.66381411961E-03  1.68558490668E-03  1.70764056160E-03  1.72998481185E-03
  1.75262143365E-03  1.77555425264E-03  1.79878714453E-03  1.82232403572E-03
  1.84616890401E-03  1.87032577925E-03  1.89479874399E-03  1.91959193423E-03
  1.94470954007E-03  1.97015580646E-03  1.99593503386E-03  2.02205157904E-03
  2.04850985575E-03  2.07531433549E-03  2.10246954830E-03  2.12998008347E-03
  2.15785059034E-03  2.18608577910E-03  2.21469042155E-03  2.24366935196E-03
  2.27302746783E-03  2.30276973076E-03  2.33290116724E-03  2.36342686958E-03
  2.39435199668E-03  2.42568177497E-03  2.45742149925E-03  2.48957653362E-03
  2.52215231234E-03  2.55515434081E-03  2.58858819645E-03  2.62245952965E-03
  2.65677406475E-03  2.69153760099E-03  2.72675601349E-03  2.76243525425E-03
  2.79858135314E-03  2.83520041894E-03  2.87229864037E-03  2.90988228709E-03
  2.94795771085E-03  2.98653134648E-03  3.02560971301E-03  3.06519941479E-03
  3.10530714257E-03  3.14593967464E-03  3.18710387800E-03  3.22880670951E-03
  3.27105521703E-03  3.31385654067E-03  3.35721791396E-03  3.40114666506E-03
  3.44565021804E-03  3.49073609412E-03  3.53641191289E-03  3.58268539370E-03
  3.62956435687E-03  3.67705672506E-03  3.72517052458E-03  3.77391388679E-03
  3.82329504942E-03  3.87332235802E-03  3.92400426732E-03  3.97534934267E-03
  4.02736626153E-03  4.08006381487E-03  4.13345090871E-03  4.18753656559E-03
  4.24232992611E-03  4.29784025049E-03  4.35407692011E-03  4.41104943908E-03
  4.46876743591E-03  4.52724066507E-03  4.58647900868E-03  4.64649247815E-03
  4.70729121592E-03  4.76888549710E-03  4.83128573129E-03  4.89450246426E-03
  4.95854637980E-03  5.02342830147E-03  5.08915919449E-03  5.15575016752E-03
  5.22321247460E-03  5.29155751703E-03  5.36079684526E-03  5.43094216093E-03
  5.50200531874E-03  5.57399832855E-03  5.64693335734E-03  5.72082273131E-03
  5.79567893794E-03  5.87151462810E-03  5.94834261821E-03  6.02617589238E-03
  6.10502760462E-03  6.18491108106E-03  6.26583982218E-03  6.34782750516E-03
  6.43088798608E-03  6.51503530239E-03  6.60028367516E-03  6.68664751159E-03
  6.77414140736E-03  6.86278014915E-03  6.95257871712E-03  7.04355228745E-03
  7.13571623487E-03  7.22908613532E-03  7.32367776853E-03  7.41950712072E-03
  7.51659038727E-03  7.61494397549E-03  7.71458450736E-03  7.81552882237E-03
  7.91779398036E-03  8.02139726438E-03  8.12635618362E-03  8.23268847640E-03
  8.34041211313E-03  8.44954529936E-03  8.56010647885E-03  8.67211433671E-03
  8.78558780254E-03  8.90054605361E-03  9.01700851815E-03  9.13499487859E-03
  9.25452507491E-03  9.37561930800E-03  9.49829804306E-03  9.62258201309E-03
  9.74849222239E-03  9.87604995008E-03  1.00052767537E-02  1.01361944729E-02
  1.02688252332E-02  1.04031914493E-02  1.05393158295E-02  1.06772213792E-02
  1.08169314047E-02  1.09584695174E-02  1.11018596375E-02  1.12471259983E-02
  1.13942931502E-02  1.15433859647E-02  1.16944296389E-02  1.18474496996E-02
  1.20024720075E-02  1.21595227617E-02  1.23186285042E-02  1.24798161242E-02
  1.26431128629E-02  1.28085463177E-02  1.29761444473E-02  1.31459355762E-02
  1.33179483996E-02  1.34922119879E-02  1.36687557922E-02  1.38476096487E-02
  1.40288037842E-02  1.42123688209E-02  1.43983357818E-02  1.45867360957E-02
  1.47776016027E-02  1.49709645596E-02  1.51668576451E-02  1.53653139657E-02
  1.55663670608E-02  1.57700509091E-02  1.59763999335E-02  1.61854490075E-02
  1.63972334609E-02  1.66117890858E-02  1.68291521426E-02  1.70493593662E-02
  1.72724479721E-02  1.74984556628E-02  1.77274206341E-02  1.79593815818E-02
  1.81943777076E-02  1.84324487266E-02  1.86736348733E-02  1.89179769088E-02
  1.91655161273E-02  1.94162943637E-02  1.96703540001E-02  1.99277379731E-02
  2.01884897813E-02  2.04526534923E-02  2.07202737504E-02  2.09913957840E-02
  2.12660654136E-02  2.15443290588E-02  2.18262337469E-02  2.21118271204E-02
  2.24011574454E-02  2.26942736192E-02  2.29912251794E-02  2.32920623113E-02
  2.35968358572E-02  2.39055973245E-02  2.42183988946E-02  2.45352934318E-02
  2.48563344920E-02  2.51815763319E-02  2.55110739181E-02  2.58448829365E-02
  2.61830598017E-02  2.65256616663E-02  2.68727464308E-02  2.72243727534E-02
  2.75806000599E-02  2.79414885534E-02  2.83070992249E-02  2.86774938636E-02
  2.90527350670E-02  2.94328862518E-02  2.98180116644E-02  3.02081763920E-02
  3.06034463733E-02  3.10038884098E-02  3.14095701773E-02  3.18205602369E-02
  3.22369280469E-02  3.26587439745E-02  3.30860793075E-02  3.35190062667E-02
  3.39575980178E-02  3.44019286837E-02  3.48520733574E-02  3.53081081145E-02
  3.57701100259E-02  3.62381571711E-02  3.67123286510E-02  3.71927046019E-02
  3.76793662084E-02  3.81723957174E-02  3.86718764522E-02  3.91778928261E-02
  3.96905303572E-02  4.02098756823E-02  4.07360165722E-02  4.12690419458E-02
  4.18090418857E-02  4.23561076532E-02  4.29103317038E-02  4.34718077025E-02
  4.40406305402E-02  4.46168963492E-02  4.52007025199E-02  4.57921477170E-02
  4.63913318960E-02  4.69983563205E-02  4.76133235791E-02  4.82363376027E-02
  4.88675036821E-02  4.95069284860E-02  5.01547200786E-02  5.08109879383E-02
  5.14758429759E-02  5.21493975535E-02  5.28317655034E-02  5.35230621474E-02
  5.42234043163E-02  5.49329103695E-02  5.56517002154E-02  5.63798953311E-02
  5.71176187833E-02  5.78649952489E-02  5.86221510366E-02  5.93892141072E-02
  6.01663140964E-02  6.09535823359E-02  6.17511518759E-02  6.25591575075E-02
  6.33777357856E-02  6.42070250519E-02  6.50471654583E-02  6.58982989904E-02
  6.67605694920E-02  6.76341226886E-02  6.85191062130E-02  6.94156696294E-02
  7.03239644592E-02  7.12441442064E-02  7.21763643835E-02  7.31207825380E-02
  7.40775582787E-02  7.50468533031E-02  7.60288314244E-02  7.70236585991E-02
  7.80315029554E-02  7.90525348215E-02  8.00869267541E-02  8.11348535679E-02
  8.21964923651E-02  8.32720225651E-02  8.43616259352E-02  8.54654866208E-02
  8.65837911771E-02  8.77167286001E-02  8.88644903591E-02  9.00272704284E-02
  9.12052653208E-02  9.23986741200E-02  9.36076985151E-02  9.48325428340E-02
  9.60734140784E-02  9.73305219584E-02  9.86040789283E-02  9.98943002222E-02
  1.01201403891E-01  1.02525610837E-01  1.03867144856E-01  1.05226232669E-01
  1.06603103967E-01  1.07997991442E-01  1.09411130835E-01  1.10842760970E-01
  1.12293123795E-01  1.13762464425E-01  1.15251031183E-01  1.16759075639E-01
  1.18286852657E-01  1.19834620434E-01  1.21402640548E-01  1.22991177996E-01
  1.24600501247E-01  1.26230882279E-01  1.27882596630E-01  1.29555923445E-01
  1.31251145519E-01  1.32968549348E-01  1.34708425180E-01  1.36471067055E-01
  1.38256772866E-01  1.40065844401E-01  1.41898587397E-01  1.43755311591E-01
  1.45636330776E-01  1.47541962847E-01  1.49472529860E-01  1.51428358088E-01
  1.53409778068E-01  1.55417124665E-01  1.57450737127E-01  1.59510959138E-01
  1.61598138881E-01  1.63712629094E-01  1.65854787130E-01  1.68024975021E-01
  1.70223559532E-01  1.72450912230E-01  1.74707409543E-01  1.76993432824E-01
  1.79309368416E-01  1.81655607718E-01  1.84032547250E-01  1.86440588721E-01
  1.88880139094E-01  1.91351610661E-01  1.93855421106E-01  1.96391993578E-01
  1.98961756765E-01  2.01565144962E-01  2.04202598148E-01  2.06874562059E-01
  2.09581488264E-01  2.12323834239E-01  2.15102063447E-01  2.17916645416E-01
  2.20768055817E-01  2.23656776545E-01  2.26583295800E-01  2.29548108171E-01
  2.32551714719E-01  2.35594623061E-01  2.38677347454E-01  2.41800408887E-01
  2.44964335165E-01  2.48169660999E-01  2.51416928096E-01  2.54706685252E-01
  2.58039488444E-01  2.61415900924E-01  2.64836493313E-01  2.68301843700E-01
  2.71812537737E-01  2.75369168740E-01  2.78972337788E-01  2.82622653825E-01
  2.86320733764E-01  2.90067202587E-01  2.93862693459E-01  2.97707847824E-01
  3.01603315525E-01  3.05549754904E-01  3.09547832919E-01  3.13598225254E-01
  3.17701616436E-01  3.21858699947E-01  3.26070178344E-01  3.30336763378E-01
  3.34659176111E-01  3.39038147041E-01  3.43474416225E-01  3.47968733403E-01
  3.52521858125E-01  3.57134559880E-01  3.61807618225E-01  3.66541822920E-01
  3.71337974054E-01  3.76196882190E-01  3.81119368495E-01  3.86106264880E-01
  3.91158414143E-01  3.96276670109E-01  4.01461897775E-01  4.06714973457E-01
  4.12036784938E-01  4.17428231616E-01  4.22890224659E-01  4.28423687157E-01
  4.34029554277E-01  4.39708773425E-01  4.45462304402E-01  4.51291119569E-01
  4.57196204009E-01  4.63178555696E-01  4.69239185661E-01  4.75379118166E-01
  4.81599390872E-01  4.87901055023E-01  4.94285175612E-01  5.00752831573E-01
  5.07305115954E-01  5.13943136107E-01  5.20668013874E-01  5.27480885774E-01
  5.34382903199E-01  5.41375232607E-01  5.48459055717E-01  5.55635569714E-01
  5.62905987444E-01  5.70271537626E-01  5.77733465055E-01  5.85293030814E-01
  5.92951512489E-01  6.00710204381E-01  6.08570417727E-01  6.16533480922E-01
  6.24600739742E-01  6.32773557575E-01  6.41053315644E-01  6.49441413250E-01
  6.57939268001E-01  6.66548316053E-01  6.75270012358E-01  6.84105830901E-01
  6.93057264959E-01  7.02125827344E-01  7.11313050664E-01  7.20620487583E-01
  7.30049711080E-01  7.39602314716E-01  7.49279912903E-01  7.59084141179E-01
  7.69016656481E-01  7.79079137428E-01  7.89273284604E-01  7.99600820844E-01
  8.10063491526E-01  8.20663064865E-01  8.31401332216E-01  8.42280108371E-01
  8.53301231869E-01  8.64466565306E-01  8.75777995650E-01  8.87237434559E-01
  8.98846818707E-01  9.10608110107E-01  9.22523296444E-01  9.34594391415E-01
  9.46823435062E-01  9.59212494123E-01  9.71763662378E-01  9.84479061005E-01
  9.97360838937E-01  1.01041117322E+00  1.02363226940E+00  1.03702636188E+00
  1.05059571427E+00  1.06434261984E+00  1.07826940185E+00  1.09237841395E+00
  1.10667204060E+00  1.12115269746E+00  1.13582283180E+00  1.15068492290E+00
  1.16574148249E+00  1.18099505516E+00  1.19644821881E+00  1.21210358505E+00
  1.22796379969E+00  1.24403154313E+00  1.26030953087E+00  1.27680051391E+00
  1.29350727928E+00  1.31043265046E+00  1.32757948787E+00  1.34495068938E+00
  1.36254919076E+00  1.38037796619E+00  1.39844002878E+00  1.41673843107E+00
  1.43527626553E+00  1.45405666508E+00  1.47308280368E+00  1.49235789678E+00
  1.51188520191E+00  1.53166801924E+00  1.55170969211E+00  1.57201360761E+00
  1.59258319716E+00  1.61342193705E+00  1.63453334909E+00  1.65592100116E+00
  1.67758850782E+00  1.69953953093E+00  1.72177778026E+00  1.74430701414E+00
  1.76713104006E+00  1.79025371532E+00  1.81367894773E+00  1.83741069619E+00
  1.86145297144E+00  1.88580983667E+00  1.91048540824E+00  1.93548385640E+00
  1.96080940594E+00  1.98646633694E+00  2.01245898547E+00  2.03879174436E+00
  2.06546906391E+00  2.09249545265E+00  2.11987547810E+00  2.14761376755E+00
  2.17571500884E+00  2.20418395114E+00  2.23302540578E+00  2.26224424702E+00
  2.29184541293E+00  2.32183390617E+00  2.35221479486E+00  2.38299321345E+00
  2.41417436357E+00  2.44576351490E+00  2.47776600609E+00  2.51018724563E+00
  2.54303271278E+00  2.57630795852E+00  2.61001860644E+00  2.64417035371E+00
  2.67876897206E+00  2.71382030875E+00  2.74933028753E+00  2.78530490967E+00
  2.82175025497E+00  2.85867248278E+00  2.89607783304E+00  2.93397262735E+00
  2.97236327002E+00  3.01125624915E+00  3.05065813775E+00  3.09057559485E+00
  3.13101536657E+00  3.17198428734E+00  3.21348928101E+00  3.25553736202E+00
  3.29813563658E+00  3.34129130392E+00  3.38501165744E+00  3.42930408599E+00
  3.47417607510E+00  3.51963520822E+00  3.56568916808E+00  3.61234573789E+00
  3.65961280273E+00  3.70749835084E+00  3.75601047500E+00  3.80515737386E+00
  3.85494735338E+00  3.90538882818E+00  3.95649032299E+00  4.00826047407E+00
  4.06070803072E+00  4.11384185669E+00  4.16767093172E+00  4.22220435306E+00
  4.27745133699E+00  4.33342122037E+00  4.39012346225E+00  4.44756764545E+00
  4.50576347817E+00  4.56472079563E+00  4.62444956178E+00  4.68495987091E+00
  4.74626194940E+00  4.80836615747E+00  4.87128299085E+00  4.93502308266E+00
  4.99959720511E+00  5.06501627140E+00  5.13129133748E+00  5.19843360402E+00
  5.26645441821E+00  5.33536527572E+00  5.40517782267E+00  5.47590385754E+00
  5.54755533319E+00  5.62014435890E+00  5.69368320238E+00  5.76818429187E+00
  5.84366021823E+00  5.92012373708E+00  5.99758777094E+00  6.07606541140E+00
  6.15556992138E+00  6.23611473732E+00  6.31771347150E+00  6.40037991429E+00
  6.48412803652E+00  6.56897199183E+00  6.65492611903E+00  6.74200494459E+00
  6.83022318502E+00  6.91959574944E+00  7.01013774200E+00  7.10186446453E+00
  7.19479141906E+00  7.28893431046E+00  7.38430904910E+00  7.48093175356E+00
  7.57881875328E+00  7.67798659141E+00  7.77845202755E+00  7.88023204059E+00
  7.98334383161E+00  8.08780482673E+00  8.19363268012E+00  8.30084527694E+00
  8.40946073636E+00  8.51949741466E+00  8.63097390831E+00  8.74390905708E+00
  8.85832194730E+00  8.97423191501E+00  9.09165854928E+00  9.21062169547E+00
  9.33114145866E+00  9.45323820696E+00  9.57693257502E+00  9.70224546748E+00
  9.82919806251E+00  9.95781181541E+00  1.00881084622E+01  1.02201100234E+01
  1.03538388074E+01  1.04893174149E+01  1.06265687419E+01  1.07656159844E+01
  1.09064826416E+01  1.10491925203E+01  1.11937697389E+01  1.13402387312E+01
  1.14886242508E+01  1.16389513753E+01  1.17912455102E+01  1.19455323938E+01
  1.21018381007E+01  1.22601890470E+01  1.24206119945E+01  1.25831340550E+01
  1.27477826951E+01  1.29145857408E+01  1.30835713822E+01  1.32547681783E+01
  1.34282050618E+01  1.36039113439E+01  1.37819167194E+01  1.39622512717E+01
  1.41449454776E+01  1.43300302130E+01  1.45175367576E+01  1.47074968005E+01
  1.48999424453E+01  1.50949062159E+01  1.52924210615E+01  1.54925203627E+01
  1.56952379367E+01  1.59006080433E+01  1.61086653905E+01  1.63194451405E+01
  1.65329829155E+01  1.67493148040E+01  1.69684773666E+01  1.71905076422E+01
  1.74154431546E+01  1.76433219183E+01  1.78741824454E+01  1.81080637518E+01
  1.83450053642E+01  1.85850473261E+01  1.88282302052E+01  1.90745951001E+01
  1.93241836469E+01  1.95770380267E+01  1.98332009726E+01  2.00927157767E+01
  2.03556262975E+01  2.06219769676E+01  2.08918128010E+01  2.11651794004E+01
  2.14421229655E+01  2.17226903004E+01  2.20069288217E+01  2.22948865663E+01
  2.25866121998E+01  2.28821550245E+01  2.31815649880E+01  2.34848926910E+01
  2.37921893968E+01  2.41035070393E+01  2.44188982318E+01  2.47384162762E+01
  2.50621151719E+01  2.53900496247E+01  2.57222750563E+01  2.60588476136E+01
  2.63998241782E+01  2.67452623759E+01  2.70952205865E+01  2.74497579540E+01
  2.78089343959E+01  2.81728106139E+01  2.85414481039E+01  2.89149091666E+01
  2.92932569178E+01  2.96765552991E+01  3.00648690889E+01  3.04582639131E+01
  3.08568062564E+01  3.12605634734E+01  3.16696038001E+01  3.20839963651E+01
  3.25038112019E+01  3.29291192602E+01  3.33599924180E+01  3.37965034939E+01
  3.42387262593E+01  3.46867354510E+01  3.51406067835E+01  3.56004169622E+01
  3.60662436961E+01  3.65381657111E+01  3.70162627630E+01  3.75006156514E+01
  3.79913062331E+01  3.84884174360E+01  3.89920332730E+01  3.95022388565E+01
  4.00191204123E+01  4.05427652948E+01  4.10732620011E+01  4.16107001864E+01
  4.21551706791E+01  4.27067654960E+01  4.32655778578E+01  4.38317022053E+01
  4.44052342149E+01  4.49862708146E+01  4.55749102013E+01  4.61712518562E+01
  4.67753965626E+01  4.73874464223E+01  4.80075048732E+01  4.86356767068E+01
  4.92720680854E+01  4.99167865609E+01  5.05699410921E+01  5.12316420636E+01
  5.19020013047E+01  5.25811321074E+01  5.32691492467E+01  5.39661689990E+01
  5.46723091622E+01  5.53876890759E+01  5.61124296408E+01  5.68466533399E+01
  5.75904842587E+01  5.83440481064E+01  5.91074722371E+01  5.98808856713E+01
  6.06644191177E+01  6.14582049953E+01  6.22623774559E+01  6.30770724064E+01
  6.39024275323E+01  6.47385823205E+01  6.55856780832E+01  6.64438579816E+01
  6.73132670502E+01  6.81940522211E+01  6.90863623491E+01  6.99903482368E+01
  7.09061626600E+01  7.18339603934E+01  7.27738982371E+01  7.37261350428E+01
  7.46908317407E+01  7.56681513671E+01  7.66582590911E+01  7.76613222433E+01
  7.86775103438E+01  7.97069951309E+01  8.07499505898E+01  8.18065529826E+01
  8.28769808776E+01  8.39614151795E+01  8.50600391605E+01  8.61730384905E+01
  8.73006012692E+01  8.84429180572E+01  8.96001819089E+01  9.07725884046E+01
  9.19603356838E+01  9.31636244786E+01  9.43826581476E+01  9.56176427105E+01
  9.68687868827E+01  9.81363021103E+01  9.94204026066E+01  1.00721305388E+02
  1.02039230309E+02  1.03374400103E+02  1.04727040417E+02  1.06097379850E+02
  1.07485649992E+02  1.08892085465E+02  1.10316923960E+02  1.11760406278E+02
  1.13222776370E+02  1.14704281381E+02  1.16205171688E+02  1.17725700946E+02
  </PP_R>
  <PP_RAB>
  5.67827267319E-07  5.75257211795E-07  5.82784376109E-07  5.90410032370E-07
  5.98135469331E-07  6.05961992610E-07  6.13890924909E-07  6.21923606235E-07
  6.30061394130E-07  6.38305663901E-07  6.46657808848E-07  6.55119240504E-07
  6.63691388871E-07  6.72375702662E-07  6.81173649547E-07  6.90086716401E-07
  6.99116409552E-07  7.08264255040E-07  7.17531798873E-07  7.26920607287E-07
  7.36432267015E-07  7.46068385548E-07  7.55830591414E-07  7.65720534449E-07
  7.75739886077E-07  7.85890339592E-07  7.96173610445E-07  8.06591436533E-07
  8.17145578494E-07  8.27837820002E-07  8.38669968072E-07  8.49643853363E-07
  8.60761330488E-07  8.72024278326E-07  8.83434600342E-07  8.94994224908E-07
  9.06705105629E-07  9.18569221671E-07  9.30588578097E-07  9.42765206208E-07
  9.55101163883E-07  9.67598535927E-07  9.80259434428E-07  9.93085999105E-07
  1.00608039768E-06  1.01924482624E-06  1.03258150960E-06  1.04609270169E-06
  1.05978068593E-06  1.07364777564E-06  1.08769631438E-06  1.10192867638E-06
  1.11634726695E-06  1.13095452286E-06  1.14575291279E-06  1.16074493768E-06
  1.17593313122E-06  1.19132006027E-06  1.20690832524E-06  1.22270056059E-06
  1.23869943525E-06  1.25490765306E-06  1.27132795325E-06  1.28796311089E-06
  1.30481593736E-06  1.32188928083E-06  1.33918602673E-06  1.35670909826E-06
  1.37446145686E-06  1.39244610271E-06  1.41066607527E-06  1.42912445375E-06
  1.44782435767E-06  1.46676894735E-06  1.48596142448E-06  1.50540503262E-06
  1.52510305779E-06  1.54505882901E-06  1.56527571885E-06  1.58575714402E-06
  1.60650656591E-06  1.62752749124E-06  1.64882347259E-06  1.67039810902E-06
  1.69225504672E-06  1.71439797954E-06  1.73683064971E-06  1.75955684839E-06
  1.78258041636E-06  1.80590524467E-06  1.82953527526E-06  1.85347450166E-06
  1.87772696967E-06  1.90229677801E-06  1.92718807903E-06  1.95240507942E-06
  1.97795204092E-06  2.00383328102E-06  2.03005317371E-06  2.05661615022E-06
  2.08352669976E-06  2.11078937026E-06  2.13840876920E-06  2.16638956430E-06
  2.19473648440E-06  2.22345432019E-06  2.25254792505E-06  2.28202221587E-06
  2.31188217388E-06  2.34213284547E-06  2.37277934310E-06  2.40382684607E-06
  2.43528060151E-06  2.46714592517E-06  2.49942820235E-06  2.53213288886E-06
  2.56526551185E-06  2.59883167081E-06  2.63283703851E-06  2.66728736194E-06
  2.70218846328E-06  2.73754624091E-06  2.77336667036E-06  2.80965580538E-06
  2.84641977892E-06  2.88366480418E-06  2.92139717565E-06  2.95962327020E-06
  2.99834954813E-06  3.03758255426E-06  3.07732891908E-06  3.11759535981E-06
  3.15838868157E-06  3.19971577854E-06  3.24158363509E-06  3.28399932700E-06
  3.32697002260E-06  3.37050298405E-06  3.41460556854E-06  3.45928522949E-06
  3.50454951787E-06  3.55040608347E-06  3.59686267615E-06  3.64392714718E-06
  3.69160745057E-06  3.73991164440E-06  3.78884789221E-06  3.83842446432E-06
  3.88864973931E-06  3.93953220536E-06  3.99108046172E-06  4.04330322019E-06
  4.09620930652E-06  4.14980766197E-06  4.20410734480E-06  4.25911753177E-06
  4.31484751974E-06  4.37130672722E-06  4.42850469593E-06  4.48645109248E-06
  4.54515570994E-06  4.60462846954E-06  4.66487942230E-06  4.72591875079E-06
  4.78775677080E-06  4.85040393310E-06  4.91387082520E-06  4.97816817317E-06
  5.04330684341E-06  5.10929784451E-06  5.17615232911E-06  5.24388159577E-06
  5.31249709090E-06  5.38201041069E-06  5.45243330304E-06  5.52377766960E-06
  5.59605556773E-06  5.66927921257E-06  5.74346097909E-06  5.81861340419E-06
  5.89474918880E-06  5.97188120006E-06  6.05002247345E-06  6.12918621504E-06
  6.20938580369E-06  6.29063479331E-06  6.37294691519E-06  6.45633608027E-06
  6.54081638151E-06  6.62640209629E-06  6.71310768879E-06  6.80094781247E-06
  6.88993731252E-06  6.98009122837E-06  7.07142479625E-06  7.16395345175E-06
  7.25769283244E-06  7.35265878049E-06  7.44886734538E-06  7.54633478657E-06
  7.64507757631E-06  7.74511240235E-06  7.84645617082E-06  7.94912600906E-06
  8.05313926852E-06  8.15851352767E-06  8.26526659504E-06  8.37341651213E-06
  8.48298155654E-06  8.59398024502E-06  8.70643133662E-06  8.82035383584E-06
  8.93576699584E-06  9.05269032174E-06  9.17114357385E-06  9.29114677105E-06
  9.41272019417E-06  9.53588438941E-06  9.66066017180E-06  9.78706862876E-06
  9.91513112361E-06  1.00448692992E-05  1.01763050816E-05  1.03094606838E-05
  1.04443586094E-05  1.05810216565E-05  1.07194729214E-05  1.08597358028E-05
  1.10018340053E-05  1.11457915440E-05  1.12916327480E-05  1.14393822647E-05
  1.15890650643E-05  1.17407064435E-05  1.18943320301E-05  1.20499677870E-05
  1.22076400172E-05  1.23673753676E-05  1.25292008339E-05  1.26931437649E-05
  1.28592318674E-05  1.30274932108E-05  1.31979562315E-05  1.33706497382E-05
  1.35456029165E-05  1.37228453340E-05  1.39024069450E-05  1.40843180958E-05
  1.42686095300E-05  1.44553123931E-05  1.46444582384E-05  1.48360790320E-05
  1.50302071583E-05  1.52268754253E-05  1.54261170706E-05  1.56279657663E-05
  1.58324556255E-05  1.60396212073E-05  1.62494975233E-05  1.64621200431E-05
  1.66775247003E-05  1.68957478989E-05  1.71168265191E-05  1.73407979237E-05
  1.75676999645E-05  1.77975709883E-05  1.80304498440E-05  1.82663758887E-05
  1.85053889943E-05  1.87475295547E-05  1.89928384923E-05  1.92413572648E-05
  1.94931278724E-05  1.97481928650E-05  2.00065953493E-05  2.02683789957E-05
  2.05335880465E-05  2.08022673225E-05  2.10744622312E-05  2.13502187742E-05
  2.16295835549E-05  2.19126037868E-05  2.21993273009E-05  2.24898025541E-05
  2.27840786374E-05  2.30822052843E-05  2.33842328788E-05  2.36902124644E-05
  2.40001957522E-05  2.43142351302E-05  2.46323836718E-05  2.49546951449E-05
  2.52812240209E-05  2.56120254839E-05  2.59471554402E-05  2.62866705275E-05
  2.66306281247E-05  2.69790863614E-05  2.73321041279E-05  2.76897410851E-05
  2.80520576744E-05  2.84191151283E-05  2.87909754802E-05  2.91677015755E-05
  2.95493570818E-05  2.99360064998E-05  3.03277151742E-05  3.07245493045E-05
  3.11265759569E-05  3.15338630746E-05  3.19464794903E-05  3.23644949371E-05
  3.27879800605E-05  3.32170064306E-05  3.36516465538E-05  3.40919738854E-05
  3.45380628417E-05  3.49899888129E-05  3.54478281754E-05  3.59116583053E-05
  3.63815575909E-05  3.68576054463E-05  3.73398823247E-05  3.78284697322E-05
  3.83234502411E-05  3.88249075042E-05  3.93329262692E-05  3.98475923923E-05
  4.03689928534E-05  4.08972157703E-05  4.14323504140E-05  4.19744872236E-05
  4.25237178214E-05  4.30801350288E-05  4.36438328815E-05  4.42149066458E-05
  4.47934528346E-05  4.53795692235E-05  4.59733548676E-05  4.65749101182E-05
  4.71843366394E-05  4.78017374257E-05  4.84272168195E-05  4.90608805282E-05
  4.97028356425E-05  5.03531906543E-05  5.10120554751E-05  5.16795414548E-05
  5.23557613999E-05  5.30408295934E-05  5.37348618132E-05  5.44379753527E-05
  5.51502890395E-05  5.58719232564E-05  5.66029999614E-05  5.73436427080E-05