<PP_INFO>
Generated using ld1 code (maybe, or maybe not)                                  
Author: unknown    Generation date: as well                                     
Info: automatically converted from PWSCF format                                 
    1        The Pseudo was generated with a Scalar-Relativistic Calculation
nl pn  l   occ               Rcut            Rcut US             E pseu
*S  0  0  2.00      0.00000000000      0.00000000000      0.00000000000
*P  0  1  5.00      0.00000000000      0.00000000000      0.00000000000
*D  0  2 10.00      0.00000000000      0.00000000000      0.00000000000
</PP_INFO>


<PP_HEADER>
   0                   Version Number
  I                    Element
   NC                  Norm - Conserving pseudopotential
    F                  Nonlinear Core Correction
SLA  PZ   NOGX NOGC    PZ   Exchange-Correlation functional
   17.00000000000      Z valence
    0.00000000000      Total energy
  0.0000000  0.0000000 Suggested cutoff for wfc and rho
    2                  Max angular momentum component
 1178                  Number of points in mesh
    3    2             Number of Wavefunctions, Number of Projectors
 Wavefunctions         nl  l   occ
                       *S  0  2.00
                       *P  1  5.00
                       *D  2 10.00
</PP_HEADER>


<PP_MESH>
  <PP_R>
  2.66220453316E-05  2.69703912637E-05  2.73232952560E-05  2.76808169502E-05
  2.80430167684E-05  2.84099559232E-05  2.87816964282E-05  2.91583011083E-05
  2.95398336108E-05  2.99263584154E-05  3.03179408458E-05  3.07146470804E-05
  3.11165441635E-05  3.15237000165E-05  3.19361834500E-05  3.23540641744E-05
  3.27774128126E-05  3.32063009117E-05  3.36408009546E-05  3.40809863730E-05
  3.45269315592E-05  3.49787118790E-05  3.54364036843E-05  3.59000843263E-05
  3.63698321679E-05  3.68457265977E-05  3.73278480430E-05  3.78162779835E-05
  3.83110989649E-05  3.88123946133E-05  3.93202496487E-05  3.98347498999E-05
  4.03559823187E-05  4.08840349945E-05  4.14189971695E-05  4.19609592537E-05
  4.25100128398E-05  4.30662507193E-05  4.36297668976E-05  4.42006566104E-05
  4.47790163394E-05  4.53649438287E-05  4.59585381014E-05  4.65598994766E-05
  4.71691295855E-05  4.77863313896E-05  4.84116091974E-05  4.90450686825E-05
  4.96868169008E-05  5.03369623095E-05  5.09956147846E-05  5.16628856400E-05
  5.23388876460E-05  5.30237350486E-05  5.37175435887E-05  5.44204305214E-05
  5.51325146365E-05  5.58539162777E-05  5.65847573637E-05  5.73251614084E-05
  5.80752535418E-05  5.88351605313E-05  5.96050108029E-05  6.03849344633E-05
  6.11750633213E-05  6.19755309105E-05  6.27864725121E-05  6.36080251769E-05
  6.44403277493E-05  6.52835208906E-05  6.61377471022E-05  6.70031507505E-05
  6.78798780908E-05  6.87680772920E-05  6.96678984619E-05  7.05794936725E-05
  7.15030169856E-05  7.24386244787E-05  7.33864742717E-05  7.43467265535E-05
  7.53195436091E-05  7.63050898468E-05  7.73035318264E-05  7.83150382868E-05
  7.93397801750E-05  8.03779306750E-05  8.14296652365E-05  8.24951616053E-05
  8.35745998527E-05  8.46681624064E-05  8.57760340811E-05  8.68984021097E-05
  8.80354561751E-05  8.91873884421E-05  9.03543935901E-05  9.15366688456E-05
  9.27344140160E-05  9.39478315230E-05  9.51771264373E-05  9.64225065124E-05
  9.76841822206E-05  9.89623667881E-05  1.00257276231E-04  1.01569129392E-04
  1.02898147978E-04  1.04244556596E-04  1.05608582792E-04  1.06990457090E-04
  1.08390413030E-04  1.09808687208E-04  1.11245519315E-04  1.12701152179E-04
  1.14175831807E-04  1.15669807422E-04  1.17183331509E-04  1.18716659859E-04
  1.20270051607E-04  1.21843769279E-04  1.23438078839E-04  1.25053249728E-04
  1.26689554913E-04  1.28347270935E-04  1.30026677951E-04  1.31728059786E-04
  1.33451703975E-04  1.35197901821E-04  1.36966948434E-04  1.38759142786E-04
  1.40574787765E-04  1.42414190217E-04  1.44277661006E-04  1.46165515063E-04
  1.48078071440E-04  1.50015653364E-04  1.51978588290E-04  1.53967207960E-04
  1.55981848453E-04  1.58022850251E-04  1.60090558286E-04  1.62185322007E-04
  1.64307495433E-04  1.66457437217E-04  1.68635510704E-04  1.70842083994E-04
  1.73077530003E-04  1.75342226526E-04  1.77636556302E-04  1.79960907080E-04
  1.82315671679E-04  1.84701248060E-04  1.87118039392E-04  1.89566454118E-04
  1.92046906026E-04  1.94559814319E-04  1.97105603683E-04  1.99684704363E-04
  2.02297552233E-04  2.04944588871E-04  2.07626261633E-04  2.10343023727E-04
  2.13095334292E-04  2.15883658476E-04  2.18708467513E-04  2.21570238801E-04
  2.24469455986E-04  2.27406609044E-04  2.30382194360E-04  2.33396714815E-04
  2.36450679871E-04  2.39544605654E-04  2.42679015046E-04  2.45854437769E-04
  2.49071410477E-04  2.52330476846E-04  2.55632187666E-04  2.58977100935E-04
  2.62365781950E-04  2.65798803406E-04  2.69276745493E-04  2.72800195991E-04
  2.76369750372E-04  2.79986011897E-04  2.83649591726E-04  2.87361109010E-04
  2.91121191006E-04  2.94930473176E-04  2.98789599298E-04  3.02699221573E-04
  3.06660000737E-04  3.10672606171E-04  3.14737716015E-04  3.18856017283E-04
  3.23028205976E-04  3.27254987204E-04  3.31537075305E-04  3.35875193960E-04
  3.40270076322E-04  3.44722465138E-04  3.49233112870E-04  3.53802781829E-04
  3.58432244301E-04  3.63122282675E-04  3.67873689580E-04  3.72687268013E-04
  3.77563831481E-04  3.82504204136E-04  3.87509220912E-04  3.92579727668E-04
  3.97716581333E-04  4.02920650047E-04  4.08192813309E-04  4.13533962128E-04
  4.18944999172E-04  4.24426838917E-04  4.29980407808E-04  4.35606644411E-04
  4.41306499575E-04  4.47080936587E-04  4.52930931341E-04  4.58857472501E-04
  4.64861561665E-04  4.70944213540E-04  4.77106456108E-04  4.83349330803E-04
  4.89673892685E-04  4.96081210620E-04  5.02572367461E-04  5.09148460228E-04
  5.15810600297E-04  5.22559913584E-04  5.29397540741E-04  5.36324637342E-04
  5.43342374084E-04  5.50451936980E-04  5.57654527563E-04  5.64951363089E-04
  5.72343676739E-04  5.79832717834E-04  5.87419752038E-04  5.95106061577E-04
  6.02892945458E-04  6.10781719682E-04  6.18773717470E-04  6.26870289488E-04
  6.35072804078E-04  6.43382647483E-04  6.51801224087E-04  6.60329956649E-04
  6.68970286546E-04  6.77723674013E-04  6.86591598394E-04  6.95575558389E-04
  7.04677072310E-04  7.13897678332E-04  7.23238934762E-04  7.32702420293E-04
  7.42289734276E-04  7.52002496992E-04  7.61842349919E-04  7.71810956017E-04
  7.81910000003E-04  7.92141188641E-04  8.02506251024E-04  8.13006938874E-04
  8.23645026832E-04  8.34422312760E-04  8.45340618044E-04  8.56401787905E-04
  8.67607691707E-04  8.78960223273E-04  8.90461301209E-04  9.02112869224E-04
  9.13916896462E-04  9.25875377830E-04  9.37990334341E-04  9.50263813450E-04
  9.62697889406E-04  9.75294663596E-04  9.88056264906E-04  1.00098485008E-03
  1.01408260407E-03  1.02735174044E-03  1.04079450169E-03  1.05441315969E-03
  1.06821001603E-03  1.08218740240E-03  1.09634768102E-03  1.11069324501E-03
  1.12522651880E-03  1.13994995855E-03  1.15486605255E-03  1.16997732167E-03
  1.18528631973E-03  1.20079563401E-03  1.21650788561E-03  1.23242572993E-03
  1.24855185714E-03  1.26488899258E-03  1.28143989728E-03  1.29820736836E-03
  1.31519423958E-03  1.33240338176E-03  1.34983770328E-03  1.36750015058E-03
  1.38539370867E-03  1.40352140159E-03  1.42188629296E-03  1.44049148651E-03
  1.45934012654E-03  1.47843539853E-03  1.49778052962E-03  1.51737878918E-03
  1.53723348938E-03  1.55734798569E-03  1.57772567751E-03  1.59837000873E-03
  1.61928446829E-03  1.64047259077E-03  1.66193795703E-03  1.68368419476E-03
  1.70571497912E-03  1.72803403338E-03  1.75064512950E-03  1.77355208881E-03
  1.79675878265E-03  1.82026913300E-03  1.84408711316E-03  1.86821674844E-03
  1.89266211679E-03  1.91742734955E-03  1.94251663209E-03  1.96793420456E-03
  1.99368436260E-03  2.01977145804E-03  2.04619989967E-03  2.07297415395E-03
  2.10009874579E-03  2.12757825932E-03  2.15541733864E-03  2.18362068863E-03
  2.21219307570E-03  2.24113932867E-03  2.27046433952E-03  2.30017306425E-03
  2.33027052370E-03  2.36076180441E-03  2.39165205949E-03  2.42294650946E-03
  2.45465044316E-03  2.48676921862E-03  2.51930826400E-03  2.55227307848E-03
  2.58566923317E-03  2.61950237213E-03  2.65377821321E-03  2.68850254914E-03
  2.72368124839E-03  2.75932025625E-03  2.79542559581E-03  2.83200336895E-03
  2.86905975739E-03  2.90660102376E-03  2.94463351263E-03  2.98316365156E-03
  3.02219795226E-03  3.06174301160E-03  3.10180551279E-03  3.14239222650E-03
  3.18351001198E-03  3.22516581823E-03  3.26736668517E-03  3.31011974486E-03
  3.35343222267E-03  3.39731143850E-03  3.44176480805E-03  3.48679984405E-03
  3.53242415752E-03  3.57864545908E-03  3.62547156024E-03  3.67291037472E-03
  3.72096991980E-03  3.76965831765E-03  3.81898379673E-03  3.86895469316E-03
  3.91957945214E-03  3.97086662938E-03  4.02282489253E-03  4.07546302266E-03
  4.12878991574E-03  4.18281458414E-03  4.23754615817E-03  4.29299388758E-03
  4.34916714317E-03  4.40607541837E-03  4.46372833079E-03  4.52213562393E-03
  4.58130716875E-03  4.64125296539E-03  4.70198314483E-03  4.76350797061E-03
  4.82583784057E-03  4.88898328861E-03  4.95295498647E-03  5.01776374551E-03
  5.08342051856E-03  5.14993640178E-03  5.21732263651E-03  5.28559061118E-03
  5.35475186324E-03  5.42481808112E-03  5.49580110616E-03  5.56771293467E-03
  5.64056571992E-03  5.71437177420E-03  5.78914357091E-03  5.86489374666E-03
  5.94163510342E-03  6.01938061064E-03  6.09814340752E-03  6.17793680515E-03
  6.25877428880E-03  6.34066952021E-03  6.42363633985E-03  6.50768876933E-03
  6.59284101369E-03  6.67910746388E-03  6.76650269913E-03  6.85504148944E-03
  6.94473879807E-03  7.03560978409E-03  7.12766980491E-03  7.22093441889E-03
  7.31541938798E-03  7.41114068035E-03  7.50811447314E-03  7.60635715514E-03
  7.70588532961E-03  7.80671581704E-03  7.90886565802E-03  8.01235211612E-03
  8.11719268080E-03  8.22340507036E-03  8.33100723495E-03  8.44001735960E-03
  8.55045386726E-03  8.66233542198E-03  8.77568093200E-03  8.89050955299E-03
  9.00684069125E-03  9.12469400703E-03  9.24408941781E-03  9.36504710170E-03
  9.48758750085E-03  9.61173132486E-03  9.73749955435E-03  9.86491344443E-03
  9.99399452837E-03  1.01247646212E-02  1.02572458233E-02  1.03914605244E-02
  1.05274314070E-02  1.06651814506E-02  1.08047339352E-02  1.09461124456E-02
  1.10893408751E-02  1.12344434296E-02  1.13814446317E-02  1.15303693251E-02
  1.16812426783E-02  1.18340901893E-02  1.19889376898E-02  1.21458113492E-02
  1.23047376797E-02  1.24657435402E-02  1.26288561409E-02  1.27941030484E-02
  1.29615121898E-02  1.31311118576E-02  1.33029307145E-02  1.34769977984E-02
  1.36533425270E-02  1.38319947030E-02  1.40129845190E-02  1.41963425628E-02
  1.43820998222E-02  1.45702876907E-02  1.47609379726E-02  1.49540828880E-02
  1.51497550791E-02  1.53479876149E-02  1.55488139970E-02  1.57522681658E-02
  1.59583845054E-02  1.61671978499E-02  1.63787434893E-02  1.65930571754E-02
  1.68101751277E-02  1.70301340395E-02  1.72529710845E-02  1.74787239227E-02
  1.77074307069E-02  1.79391300890E-02  1.81738612267E-02  1.84116637903E-02
  1.86525779689E-02  1.88966444775E-02  1.91439045640E-02  1.93944000160E-02
  1.96481731677E-02  1.99052669075E-02  2.01657246847E-02  2.04295905175E-02
  2.06969089996E-02  2.09677253086E-02  2.12420852131E-02  2.15200350806E-02
  2.18016218852E-02  2.20868932158E-02  2.23758972839E-02  2.26686829319E-02
  2.29652996413E-02  2.32657975410E-02  2.35702274158E-02  2.38786407152E-02
  2.41910895617E-02  2.45076267599E-02  2.48283058053E-02  2.51531808936E-02
  2.54823069292E-02  2.58157395354E-02  2.61535350631E-02  2.64957506003E-02
  2.68424439825E-02  2.71936738017E-02  2.75494994164E-02  2.79099809621E-02
  2.82751793610E-02  2.86451563325E-02  2.90199744036E-02  2.93996969195E-02
  2.97843880541E-02  3.01741128212E-02  3.05689370851E-02  3.09689275722E-02
  3.13741518818E-02  3.17846784977E-02  3.22005767999E-02  3.26219170762E-02
  3.30487705342E-02  3.34812093130E-02  3.39193064959E-02  3.43631361224E-02
  3.48127732006E-02  3.52682937204E-02  3.57297746657E-02  3.61972940280E-02
  3.66709308191E-02  3.71507650849E-02  3.76368779183E-02  3.81293514737E-02
  3.86282689803E-02  3.91337147562E-02  3.96457742231E-02  4.01645339202E-02
  4.06900815191E-02  4.12225058386E-02  4.17618968598E-02  4.23083457409E-02
  4.28619448331E-02  4.34227876960E-02  4.39909691134E-02  4.45665851093E-02
  4.51497329641E-02  4.57405112313E-02  4.63390197537E-02  4.69453596808E-02
  4.75596334854E-02  4.81819449812E-02  4.88123993404E-02  4.94511031113E-02
  5.00981642363E-02  5.07536920703E-02  5.14177973991E-02  5.20905924580E-02
  5.27721909510E-02  5.34627080699E-02  5.41622605137E-02  5.48709665084E-02
  5.55889458271E-02  5.63163198099E-02  5.70532113848E-02  5.77997450882E-02
  5.85560470861E-02  5.93222451954E-02  6.00984689052E-02  6.08848493994E-02
  6.16815195780E-02  6.24886140802E-02  6.33062693070E-02  6.41346234439E-02
  6.49738164848E-02  6.58239902554E-02  6.66852884370E-02  6.75578565910E-02
  6.84418421836E-02  6.93373946105E-02  7.02446652220E-02  7.11638073492E-02
  7.20949763292E-02  7.30383295317E-02  7.39940263858E-02  7.49622284065E-02
  7.59430992222E-02  7.69368046024E-02  7.79435124857E-02  7.89633930082E-02
  7.99966185320E-02  8.10433636747E-02  8.21038053388E-02  8.31781227414E-02
  8.42664974447E-02  8.53691133866E-02  8.64861569119E-02  8.76178168035E-02
  8.87642843148E-02  8.99257532013E-02  9.11024197542E-02  9.22944828328E-02
  9.35021438987E-02  9.47256070495E-02  9.59650790533E-02  9.72207693839E-02
  9.84928902559E-02  9.97816566608E-02  1.01087286403E-01  1.02410000138E-01
  1.03750021406E-01  1.05107576674E-01  1.06482895374E-01  1.07876209936E-01
  1.09287755834E-01  1.10717771623E-01  1.12166498979E-01  1.13634182740E-01
  1.15121070949E-01  1.16627414893E-01  1.18153469147E-01  1.19699491619E-01
  1.21265743590E-01  1.22852489760E-01  1.24459998294E-01  1.26088540863E-01
  1.27738392696E-01  1.29409832621E-01  1.31103143116E-01  1.32818610354E-01
  1.34556524253E-01  1.36317178525E-01  1.38100870725E-01  1.39907902301E-01
  1.41738578645E-01  1.43593209147E-01  1.45472107242E-01  1.47375590470E-01
  1.49303980523E-01  1.51257603305E-01  1.53236788981E-01  1.55241872039E-01
  1.57273191344E-01  1.59331090192E-01  1.61415916373E-01  1.63528022229E-01
  1.65667764709E-01  1.67835505436E-01  1.70031610763E-01  1.72256451837E-01
  1.74510404661E-01  1.76793850159E-01  1.79107174238E-01  1.81450767856E-01
  1.83825027086E-01  1.86230353183E-01  1.88667152653E-01  1.91135837320E-01
  1.93636824399E-01  1.96170536563E-01  1.98737402014E-01  2.01337854558E-01
  2.03972333680E-01  2.06641284611E-01  2.09345158411E-01  2.12084412041E-01
  2.14859508442E-01  2.17670916611E-01  2.20519111683E-01  2.23404575010E-01
  2.26327794241E-01  2.29289263409E-01  2.32289483007E-01  2.35328960082E-01
  2.38408208310E-01  2.41527748093E-01  2.44688106641E-01  2.47889818061E-01
  2.51133423450E-01  2.54419470986E-01  2.57748516017E-01  2.61121121161E-01
  2.64537856397E-01  2.67999299159E-01  2.71506034441E-01  2.75058654889E-01
  2.78657760905E-01  2.82303960745E-01  2.85997870626E-01  2.89740114829E-01
  2.93531325800E-01  2.97372144264E-01  3.01263219328E-01  3.05205208594E-01
  3.09198778266E-01  3.13244603267E-01  3.17343367352E-01  3.21495763221E-01
  3.25702492640E-01  3.29964266555E-01  3.34281805216E-01  3.38655838298E-01
  3.43087105023E-01  3.47576354285E-01  3.52124344778E-01  3.56731845124E-01
  3.61399634000E-01  3.66128500275E-01  3.70919243138E-01  3.75772672235E-01
  3.80689607809E-01  3.85670880833E-01  3.90717333153E-01  3.95829817632E-01
  4.01009198293E-01  4.06256350463E-01  4.11572160923E-01  4.16957528057E-01
  4.22413362007E-01  4.27940584819E-01  4.33540130610E-01  4.39212945714E-01
  4.44959988851E-01  4.50782231286E-01  4.56680656990E-01  4.62656262813E-01
  4.68710058645E-01  4.74843067592E-01  4.81056326149E-01  4.87350884369E-01
  4.93727806049E-01  5.00188168903E-01  5.06733064748E-01  5.13363599687E-01
  5.20080894296E-01  5.26886083814E-01  5.33780318335E-01  5.40764762999E-01
  5.47840598196E-01  5.55009019758E-01  5.62271239165E-01  5.69628483749E-01
  5.77081996904E-01  5.84633038289E-01  5.92282884049E-01  6.00032827026E-01
  6.07884176979E-01  6.15838260805E-01  6.23896422763E-01  6.32060024701E-01
  6.40330446288E-01  6.48709085244E-01  6.57197357580E-01  6.65796697833E-01
  6.74508559312E-01  6.83334414344E-01  6.92275754518E-01  7.01334090942E-01
  7.10510954497E-01  7.19807896095E-01  7.29226486940E-01  7.38768318796E-01
  7.48435004257E-01  7.58228177016E-01  7.68149492140E-01  7.78200626358E-01
  7.88383278333E-01  7.98699168958E-01  8.09150041645E-01  8.19737662614E-01
  8.30463821199E-01  8.41330330146E-01  8.52339025922E-01  8.63491769022E-01
  8.74790444286E-01  8.86236961217E-01  8.97833254304E-01  9.09581283348E-01
  9.21483033793E-01  9.33540517065E-01  9.45755770905E-01  9.58130859723E-01
  9.70667874935E-01  9.83368935329E-01  9.96236187414E-01  1.00927180579E+00
  1.02247799349E+00  1.03585698242E+00  1.04941103364E+00  1.06314243782E+00
  1.07705351560E+00  1.09114661799E+00  1.10542412676E+00  1.11988845483E+00
  1.13454204672E+00  1.14938737892E+00  1.16442696032E+00  1.17966333264E+00
  1.19509907088E+00  1.21073678370E+00  1.22657911393E+00  1.24262873894E+00
  1.25888837116E+00  1.27536075852E+00  1.29204868488E+00  1.30895497055E+00
  1.32608247272E+00  1.34343408598E+00  1.36101274280E+00  1.37882141402E+00
  1.39686310933E+00  1.41514087784E+00  1.43365780852E+00  1.45241703078E+00
  1.47142171498E+00  1.49067507295E+00  1.51018035856E+00  1.52994086824E+00
  1.54995994157E+00  1.57024096182E+00  1.59078735653E+00  1.61160259808E+00
  1.63269020432E+00  1.65405373908E+00  1.67569681286E+00  1.69762308339E+00
  1.71983625627E+00  1.74234008556E+00  1.76513837447E+00  1.78823497598E+00
  1.81163379344E+00  1.83533878134E+00  1.85935394585E+00  1.88368334561E+00
  1.90833109233E+00  1.93330135155E+00  1.95859834331E+00  1.98422634284E+00
  2.01018968135E+00  2.03649274670E+00  2.06313998417E+00  2.09013589720E+00
  2.11748504818E+00  2.14519205917E+00  2.17326161273E+00  2.20169845267E+00
  2.23050738489E+00  2.25969327817E+00  2.28926106498E+00  2.31921574237E+00
  2.34956237274E+00  2.38030608474E+00  2.41145207413E+00  2.44300560467E+00
  2.47497200897E+00  2.50735668942E+00  2.54016511913E+00  2.57340284278E+00
  2.60707547764E+00  2.64118871447E+00  2.67574831847E+00  2.71076013030E+00
  2.74623006705E+00  2.78216412322E+00  2.81856837174E+00  2.85544896503E+00
  2.89281213599E+00  2.93066419909E+00  2.96901155141E+00  3.00786067375E+00
  3.04721813170E+00  3.08709057677E+00  3.12748474750E+00  3.16840747059E+00
  3.20986566208E+00  3.25186632851E+00  3.29441656809E+00  3.33752357192E+00
  3.38119462517E+00  3.42543710835E+00  3.47025849857E+00  3.51566637072E+00
  3.56166839887E+00  3.60827235744E+00  3.65548612264E+00  3.70331767369E+00
  3.75177509424E+00  3.80086657371E+00  3.85060040868E+00  3.90098500429E+00
  3.95202887564E+00  4.00374064928E+00  4.05612906462E+00  4.10920297542E+00
  4.16297135131E+00  4.21744327927E+00  4.27262796517E+00  4.32853473537E+00
  4.38517303825E+00  4.44255244580E+00  4.50068265530E+00  4.55957349087E+00
  4.61923490522E+00  4.67967698125E+00  4.74090993384E+00  4.80294411149E+00
  4.86578999812E+00  4.92945821485E+00  4.99395952175E+00  5.05930481969E+00
  5.12550515219E+00  5.19257170726E+00  5.26051581930E+00  5.32934897104E+00
  5.39908279544E+00  5.46972907769E+00  5.54129975716E+00  5.61380692948E+00
  5.68726284854E+00  5.76167992855E+00  5.83707074619E+00  5.91344804267E+00
  5.99082472595E+00  6.06921387287E+00  6.14862873137E+00  6.22908272276E+00
  6.31058944397E+00  6.39316266980E+00  6.47681635535E+00  6.56156463827E+00
  6.64742184123E+00  6.73440247431E+00  6.82252123744E+00  6.91179302289E+00
  7.00223291781E+00  7.09385620676E+00  7.18667837430E+00  7.28071510758E+00
  7.37598229905E+00  7.47249604908E+00  7.57027266873E+00  7.66932868248E+00
  7.76968083103E+00  7.87134607413E+00  7.97434159345E+00  8.07868479548E+00
  8.18439331447E+00  8.29148501541E+00  8.39997799706E+00  8.50989059497E+00
  8.62124138466E+00  8.73404918465E+00  8.84833305975E+00  8.96411232419E+00
  9.08140654495E+00  9.20023554503E+00  9.32061940682E+00  9.44257847546E+00
  9.56613336235E+00  9.69130494854E+00  9.81811438834E+00  9.94658311283E+00
  1.00767328335E+01  1.02085855461E+01  1.03421635339E+01  1.04774893720E+01
  1.06145859306E+01  1.07534763796E+01  1.08941841917E+01  1.10367331469E+01
  1.11811473362E+01  1.13274511660E+01  1.14756693620E+01  1.16258269735E+01
  1.17779493774E+01  1.19320622828E+01  1.20881917351E+01  1.22463641205E+01
  1.24066061707E+01  1.25689449668E+01  1.27334079446E+01  1.29000228986E+01
  1.30688179871E+01  1.32398217370E+01  1.34130630483E+01  1.35885711992E+01
  1.37663758510E+01  1.39465070530E+01  1.41289952479E+01  1.43138712767E+01
  1.45011663837E+01  1.46909122224E+01  1.48831408602E+01  1.50778847843E+01
  1.52751769068E+01  1.54750505705E+01  1.56775395546E+01  1.58826780802E+01
  1.60905008162E+01  1.63010428851E+01  1.65143398691E+01  1.67304278158E+01
  1.69493432447E+01  1.71711231528E+01  1.73958050217E+01  1.76234268230E+01
  1.78540270255E+01  1.80876446009E+01  1.83243190314E+01  1.85640903154E+01
  1.88069989748E+01  1.90530860618E+01  1.93023931657E+01  1.95549624200E+01
  1.98108365095E+01  2.00700586775E+01  2.03326727332E+01  2.05987230590E+01
  2.08682546180E+01  2.11413129617E+01  2.14179442376E+01  2.16981951971E+01
  2.19821132032E+01  2.22697462388E+01  2.25611429144E+01  2.28563524770E+01
  2.31554248175E+01  2.34584104799E+01  2.37653606695E+01  2.40763272616E+01
  2.43913628103E+01  2.47105205574E+01  2.50338544413E+01  2.53614191062E+01
  2.56932699112E+01  2.60294629400E+01  2.63700550101E+01  2.67151036821E+01
  2.70646672703E+01  2.74188048517E+01  2.77775762763E+01  2.81410421775E+01
  2.85092639817E+01  2.88823039195E+01  2.92602250353E+01  2.96430911988E+01
  3.00309671153E+01  3.04239183367E+01  3.08220112727E+01  3.12253132019E+01
  3.16338922835E+01  3.20478175681E+01  3.24671590101E+01  3.28919874793E+01
  3.33223747727E+01  3.37583936267E+01  3.42001177296E+01  3.46476217338E+01
  3.51009812685E+01  3.55602729526E+01  3.60255744074E+01  3.64969642701E+01
  3.69745222066E+01  3.74583289254E+01  3.79484661909E+01  3.84450168375E+01
  3.89480647835E+01  3.94576950451E+01  3.99739937511E+01  4.04970481572E+01
  4.10269466608E+01  4.15637788160E+01  4.21076353488E+01  4.26586081721E+01
  4.32167904018E+01  4.37822763720E+01  4.43551616510E+01  4.49355430579E+01
  4.55235186786E+01  4.61191878822E+01  4.67226513384E+01  4.73340110339E+01
  4.79533702899E+01  4.85808337796E+01  4.92165075458E+01  4.98604990190E+01
  5.05129170351E+01  5.11738718545E+01  5.18434751800E+01  5.25218401762E+01
  5.32090814884E+01  5.39053152620E+01  5.46106591622E+01  5.53252323937E+01
  5.60491557213E+01  5.67825514895E+01  5.75255436441E+01  5.82782577525E+01
  5.90408210251E+01  5.98133623371E+01  6.05960122496E+01  6.13889030324E+01
  6.21921686860E+01  6.30059449640E+01  6.38303693968E+01  6.46655813138E+01
  6.55117218681E+01  6.63689340592E+01  6.72373627582E+01  6.81171547315E+01
  6.90084586661E+01  6.99114251945E+01  7.08262069201E+01  7.17529584432E+01
  7.26918363871E+01  7.36429994244E+01  7.46066083038E+01  7.55828258777E+01
  7.65718171290E+01  7.75737491996E+01  7.85887914185E+01  7.96171153301E+01
  8.06588947238E+01  8.17143056627E+01  8.27835265137E+01  8.38667379777E+01
  8.49641231200E+01  8.60758674014E+01  8.72021587092E+01  8.83431873894E+01
  8.94991462785E+01  9.06702307364E+01  9.18566386791E+01  9.30585706123E+01
  9.42762296655E+01  9.55098216258E+01  9.67595549733E+01  9.80256409160E+01
  9.93082934252E+01  1.00607729272E+02  1.01924168065E+02  1.03257832285E+02
  1.04608947325E+02  1.05977741525E+02  1.07364446216E+02  1.08769295754E+02
  1.10192527561E+02  1.11634382169E+02  1.13095103252E+02  1.14574937677E+02
  1.16074135540E+02  1.17592950207E+02
  </PP_R>
  <PP_RAB>
  3.46086589311E-07  3.50615086428E-07  3.55202838328E-07  3.59850620353E-07
  3.64559217990E-07  3.69329427002E-07  3.74162053566E-07  3.79057914408E-07
  3.84017836940E-07  3.89042659400E-07  3.94133230996E-07  3.99290412045E-07
  4.04515074125E-07  4.09808100215E-07  4.15170384849E-07  4.20602834267E-07
  4.26106366564E-07  4.31681911852E-07  4.37330412410E-07  4.43052822849E-07
  4.48850110269E-07  4.54723254427E-07  4.60673247896E-07  4.66701096241E-07
  4.72807818182E-07  4.78994445770E-07  4.85262024559E-07  4.91611613785E-07
  4.98044286544E-07  5.04561129973E-07  5.11163245433E-07  5.17851748699E-07
  5.24627770143E-07  5.31492454928E-07  5.38446963204E-07  5.45492470298E-07
  5.52630166917E-07  5.59861259350E-07  5.67186969669E-07  5.74608535935E-07
  5.82127212412E-07  5.89744269773E-07  5.97460995319E-07  6.05278693195E-07
  6.13198684611E-07  6.21222308065E-07  6.29350919567E-07  6.37585892872E-07
  6.45928619711E-07  6.54380510024E-07  6.62942992200E-07  6.71617513320E-07
  6.80405539398E-07  6.89308555632E-07  6.98328066653E-07  7.07465596779E-07
  7.16722690274E-07  7.26100911610E-07  7.35601845728E-07  7.45227098309E-07
  7.54978296044E-07  7.64857086907E-07  7.74865140438E-07  7.85004148023E-07
  7.95275823176E-07  8.05681901837E-07  8.16224142657E-07  8.26904327299E-07
  8.37724260741E-07  8.48685771577E-07  8.59790712328E-07  8.71040959757E-07
  8.82438415180E-07  8.93985004796E-07  9.05682680005E-07  9.17533417743E-07
  9.29539220812E-07  9.41702118223E-07  9.54024165532E-07  9.66507445196E-07
  9.79154066919E-07  9.91966168009E-07  1.00494591374E-06  1.01809549773E-06
  1.03141714228E-06  1.04491309877E-06  1.05858564807E-06  1.07243710087E-06
  1.08646979809E-06  1.10068611128E-06  1.11508844305E-06  1.12967922743E-06
  1.14446093028E-06  1.15943604975E-06  1.17460711667E-06  1.18997669499E-06
  1.20554738221E-06  1.22132180980E-06  1.23730264368E-06  1.25349258466E-06
  1.26989436887E-06  1.28651076825E-06  1.30334459100E-06  1.32039868210E-06
  1.33767592372E-06  1.35517923575E-06  1.37291157630E-06  1.39087594217E-06
  1.40907536939E-06  1.42751293370E-06  1.44619175109E-06  1.46511497833E-06
  1.48428581349E-06  1.50370749648E-06  1.52338330962E-06  1.54331657817E-06
  1.56351067089E-06  1.58396900063E-06  1.60469502491E-06  1.62569224646E-06
  1.64696421387E-06  1.66851452216E-06  1.69034681337E-06  1.71246477721E-06
  1.73487215168E-06  1.75757272367E-06  1.78057032964E-06  1.80386885622E-06
  1.82747224094E-06  1.85138447282E-06  1.87560959308E-06  1.90015169582E-06
  1.92501492873E-06  1.95020349373E-06  1.97572164777E-06  2.00157370347E-06
  2.02776402990E-06  2.05429705326E-06  2.08117725772E-06  2.10840918609E-06
  2.13599744063E-06  2.16394668382E-06  2.19226163916E-06  2.22094709192E-06
  2.25000789003E-06  2.27944894483E-06  2.30927523193E-06  2.33949179204E-06
  2.37010373182E-06  2.40111622478E-06  2.43253451210E-06  2.46436390354E-06
  2.49660977834E-06  2.52927758614E-06  2.56237284787E-06  2.59590115671E-06
  2.62986817903E-06  2.66427965533E-06  2.69914140123E-06  2.73445930845E-06
  2.77023934580E-06  2.80648756019E-06  2.84321007766E-06  2.88041310441E-06
  2.91810292782E-06  2.95628591757E-06  2.99496852668E-06  3.03415729260E-06
  3.07385883832E-06  3.11407987350E-06  3.15482719560E-06  3.19610769099E-06
  3.23792833620E-06  3.28029619900E-06  3.32321843966E-06  3.36670231215E-06
  3.41075516535E-06  3.45538444428E-06  3.50059769141E-06  3.54640254789E-06
  3.59280675483E-06  3.63981815467E-06  3.68744469243E-06  3.73569441713E-06
  3.78457548308E-06  3.83409615129E-06  3.88426479087E-06  3.93508988045E-06
  3.98658000958E-06  4.03874388023E-06  4.09159030820E-06  4.14512822467E-06
  4.19936667768E-06  4.25431483366E-06  4.30998197896E-06  4.36637752148E-06
  4.42351099219E-06  4.48139204679E-06  4.54003046731E-06  4.59943616378E-06
  4.65961917592E-06  4.72058967478E-06  4.78235796453E-06  4.84493448417E-06
  4.90832980926E-06  4.97255465377E-06  5.03761987186E-06  5.10353645969E-06
  5.17031555733E-06  5.23796845061E-06  5.30650657302E-06  5.37594150767E-06
  5.44628498923E-06  5.51754890592E-06  5.58974530150E-06  5.66288637735E-06
  5.73698449447E-06  5.81205217562E-06  5.88810210743E-06  5.96514714251E-06
  6.04320030165E-06  6.12227477603E-06  6.20238392941E-06  6.28354130044E-06
  6.36576060491E-06  6.44905573807E-06  6.53344077699E-06  6.61892998297E-06
  6.70553780386E-06  6.79327887660E-06  6.88216802963E-06  6.97222028545E-06
  7.06345086309E-06  7.15587518073E-06  7.24950885832E-06  7.34436772015E-06
  7.44046779761E-06  7.53782533184E-06  7.63645677649E-06  7.73637880051E-06
  7.83760829096E-06  7.94016235586E-06  8.04405832710E-06  8.14931376335E-06
  8.25594645302E-06  8.36397441728E-06  8.47341591313E-06  8.58428943644E-06
  8.69661372510E-06  8.81040776217E-06  8.92569077912E-06  9.04248225906E-06
  9.16080194002E-06  9.28066981832E-06  9.40210615190E-06  9.52513146380E-06
  9.64976654559E-06  9.77603246089E-06  9.90395054895E-06  1.00335424282E-05
  1.01648300000E-05  1.02978354523E-05  1.04325812633E-05  1.05690902054E-05
  1.07073853488E-05  1.08474900659E-05  1.09894280346E-05  1.11332232428E-05
  1.12788999922E-05  1.14264829025E-05  1.15759969157E-05  1.17274672999E-05
  1.18809196540E-05  1.20363799118E-05  1.21938743464E-05  1.23534295749E-05
  1.25150725623E-05  1.26788306268E-05  1.28447314438E-05  1.30128030510E-05
  1.31830738529E-05  1.33555726257E-05  1.35303285220E-05  1.37073710760E-05
  1.38867302084E-05  1.40684362312E-05  1.42525198533E-05  1.44390121851E-05
  1.46279447444E-05  1.48193494611E-05  1.50132586831E-05  1.52097051817E-05
  1.54087221565E-05  1.56103432421E-05  1.58146025129E-05  1.60215344891E-05
  1.62311741428E-05  1.64435569036E-05  1.66587186646E-05  1.68766957887E-05
  1.70975251146E-05  1.73212439629E-05  1.75478901426E-05  1.77775019576E-05
  1.80101182127E-05  1.82457782206E-05  1.84845218085E-05  1.87263893246E-05