                                                                                     
                             WELCOME TO ABACUS                                       
                                                                                     
               'Atomic-orbital Based Ab-initio Computation at UStc'                  
                                                                                     
                     Website: http://abacus.ustc.edu.cn/                             
                                                                                     
    Version: Parallel, v2.0.0
    Processor Number is 8
    Start Time is Wed Oct  9 18:34:53 2019
                                                                                     
 ------------------------------------------------------------------------------------

 READING GENERAL INFORMATION
                           global_out_dir = OUT.Si-6-1.8/
                           global_in_card = INPUT
                               pseudo_dir = ./
                              pseudo_type = auto
                                    DRANK = 1
                                    DSIZE = 8
                                   DCOLOR = 1
                                    GRANK = 1
                                    GSIZE = 1
Open file : INPUTw




 >>>>>>>>>>>>>>>>>>>>>>>>>>>>>>>>>>>>>>>>>>>>>>>>>>>>>>>>>>>>>>>>>>>>>>
 |                                                                    |
 | Reading atom information in unitcell:                              |
 | From the input file and the structure file we know the number of   |
 | different elments in this unitcell, then we list the detail        |
 | information for each element, especially the zeta and polar atomic |
 | orbital number for each element. The total atom number is counted. |
 | We calculate the nearest atom distance for each atom and show the  |
 | Cartesian and Direct coordinates for each atom. We list the file   |
 | address for atomic orbitals and nonlocal projectors. The volume    |
 | and the lattice vectors in real and reciprocal space is also shown.|
 |                                                                    |
 <<<<<<<<<<<<<<<<<<<<<<<<<<<<<<<<<<<<<<<<<<<<<<<<<<<<<<<<<<<<<<<<<<<<<<




 READING UNITCELL INFORMATION
                                    ntype = 1
                 atom label for species 1 = Si
                  lattice constant (Bohr) = 20
              lattice constant (Angstrom) = 10.5835

 READING ATOM TYPE 1
                               atom label = Si
                      start magnetization = FALSE
                      L=0, number of zeta = 1
                      L=1, number of zeta = 1
                      L=2, number of zeta = 1
             number of atom for this type = 2

                        TOTAL ATOM NUMBER = 2

 Output nearest atom not considering periodic boundary condition
  TYPE INDEX       NEAREST(Bohr)   NEAREST(Angstrom)
    Si     1                   0                   0
    Si     2                   0                   0

 CARTESIAN COORDINATES ( UNIT = 20 Bohr ).
         atom                   x                   y                   z                 mag
     tauc_Si1                   0                   0                   0                   0
     tauc_Si2                   0                   0      0.170075419001                   0


                          Volume (Bohr^3) = 8000
                             Volume (A^3) = 1185.47627437

 Lattice vectors: (Cartesian coordinate: in unit of a_0)
                   +1                  +0                  +0
                   +0                  +1                  +0
                   +0                  +0                  +1
 Reciprocal vectors: (Cartesian coordinate: in unit of 2 pi/a_0)
                   +1                  +0                  +0
                   +0                  +1                  +0
                   +0                  -0                  +1




 >>>>>>>>>>>>>>>>>>>>>>>>>>>>>>>>>>>>>>>>>>>>>>>>>>>>>>>>>>>>>>>>>>>>>>
 |                                                                    |
 | Reading pseudopotentials files:                                    |
 | The pseudopotential file is in UPF format. The 'NC' indicates that |
 | the type of pseudopotential is 'norm conserving'. Functional of    |
 | exchange and correlation is decided by 4 given parameters in UPF   |
 | file.  We also read in the 'core correction' if there exists.      |
 | Also we can read the valence electrons number and the maximal      |
 | angular momentum used in this pseudopotential. We also read in the |
 | trail wave function, trail atomic density and local-pseudopotential|
 | on logrithmic grid. The non-local pseudopotential projector is also|
 | read in if there is any.                                           |
 |                                                                    |
 <<<<<<<<<<<<<<<<<<<<<<<<<<<<<<<<<<<<<<<<<<<<<<<<<<<<<<<<<<<<<<<<<<<<<<




                PAO radial cut off (Bohr) = 14

 Read in pseudopotential file is Si_ONCV_PBE-1.0.upf
                     pseudopotential type = NC
                            functional Ex = PBE
                            functional Ec = 
                          functional GCEx = 
                          functional GCEc = 
                 nonlocal core correction = 0
                        valence electrons = 4
                                     lmax = 1
                           number of zeta = 0
                     number of projectors = 4
                           L of projector = 0
                           L of projector = 0
                           L of projector = 1
                           L of projector = 1

 SETUP THE ELECTRONS NUMBER
            electron number of element Si = 4
      total electron number of element Si = 8
                           occupied bands = 4
                                   NBANDS = 8
     initial pseudo atomic orbital number = 0
                                   NLOCAL = 18
 DONE : SETUP UNITCELL Time : 0.198137998581 (SEC)





 >>>>>>>>>>>>>>>>>>>>>>>>>>>>>>>>>>>>>>>>>>>>>>>>>>>>>>>>>>>>>>>>>>>>>>
 |                                                                    |
 | Setup K-points                                                     |
 | We setup the k-points according to input parameters.               |
 | The reduced k-points are set according to symmetry operations.     |
 | We treat the spin as another set of k-points.                      |
 |                                                                    |
 <<<<<<<<<<<<<<<<<<<<<<<<<<<<<<<<<<<<<<<<<<<<<<<<<<<<<<<<<<<<<<<<<<<<<<





 SETUP K-POINTS
                                    nspin = 1
                   Input type of k points = Monkhorst-Pack(Gamma)
                                   nkstot = 1

  KPOINTS            DIRECT_X            DIRECT_Y            DIRECT_Z              WEIGHT
        1                   0                   0                   0                   1

           k-point number in this process = 1
       minimum distributed K point number = 1

  KPOINTS         CARTESIAN_X         CARTESIAN_Y         CARTESIAN_Z              WEIGHT
        1                   0                   0                   0                   2

  KPOINTS            DIRECT_X            DIRECT_Y            DIRECT_Z              WEIGHT
        1                   0                   0                   0                   2
 DONE : INIT K-POINTS Time : 0.199105978012 (SEC)





 >>>>>>>>>>>>>>>>>>>>>>>>>>>>>>>>>>>>>>>>>>>>>>>>>>>>>>>>>>>>>>>>>>>>>>
 |                                                                    |
 | Setup plane waves:                                                 |
 | Use the energy cutoff and the lattice vectors to generate the      |
 | dimensions of FFT grid. The number of FFT grid on each processor   |
 | is 'nrxx'. The number of plane wave basis in reciprocal space is   |
 | different for charege/potential and wave functions. We also set    |
 | the 'sticks' for the parallel of FFT.                              |
 |                                                                    |
 <<<<<<<<<<<<<<<<<<<<<<<<<<<<<<<<<<<<<<<<<<<<<<<<<<<<<<<<<<<<<<<<<<<<<<





 SETUP THE PLANE WAVE BASIS
     energy cutoff for wavefunc (unit:Ry) = 100
            [fft grid for wave functions] = 128, 128, 128
          [fft grid for charge/potential] = 128, 128, 128
                      [fft grid division] = 1, 1, 1
      [big fft grid for charge/potential] = 128, 128, 128
                                     nbxx = 262144
                                     nrxx = 262144

 SETUP PLANE WAVES FOR CHARGE/POTENTIAL
                    number of plane waves = 1080751
                         number of sticks = 12745

 SETUP PLANE WAVES FOR WAVE FUNCTIONS
                    number of plane waves = 135043
                         number of sticks = 3181

 PARALLEL PW FOR CHARGE/POTENTIAL
     PROC   COLUMNS(POT)             PW
        1           1592         135094
        2           1592         135094
        3           1593         135095
        4           1594         135094
        5           1594         135094
        6           1594         135094
        7           1593         135093
        8           1593         135093
 --------------- sum -------------------
        8          12745        1080751

 PARALLEL PW FOR WAVE FUNCTIONS
     PROC     COLUMNS(W)             PW
        1            399          16877
        2            404          16880
        3            397          16877
        4            399          16887
        5            396          16882
        6            396          16886
        7            394          16878
        8            396          16876
 --------------- sum -------------------
        8           3181         135043

 SETUP COORDINATES OF PLANE WAVES
              number of total plane waves = 1080751

 SETUP COORDINATES OF PLANE WAVES
                            number of |g| = 3355
                                  max |g| = 4052
                                  min |g| = 0
 DONE : INIT PLANEWAVE Time : 0.764195919037 (SEC)

                                     npwx = 16877

 SETUP NONLOCAL PSEUDOPOTENTIALS IN PLANE WAVE BASIS
 Si non-local projectors:
 projector 1 L=0
 projector 2 L=0
 projector 3 L=1
 projector 4 L=1
      TOTAL NUMBER OF NONLOCAL PROJECTORS = 16
 DONE : LOCAL POTENTIAL Time : 0.840073823929 (SEC)


 Init Non-Local PseudoPotential table : 
 Init Non-Local-Pseudopotential done.
 DONE : NON-LOCAL POTENTIAL Time : 0.869410991669 (SEC)

                                start_pot = atomic
 DONE : INIT POTENTIAL Time : 1.11801 (SEC)


 Make real space PAO into reciprocal space.
       max mesh points in Pseudopotential = 601
     dq(describe PAO in reciprocal space) = 0.01
                                    max q = 1206

 number of pseudo atomic orbitals for Si is 0
 DONE : INIT BASIS Time : 1.31817 (SEC)

 -------------------------------------------
 -------------------------------------------

 PW ALGORITHM --------------- ION=   1  ELEC=   1--------------------------------
  K-point    CG iter num      Time(Sec)
 Energy (eV) & Occupations  for spin=1 K-point=1
      1     -15.749386       1.000000
      2      -8.436116       1.000000
      3      -6.665793       1.000000
      4      -6.595515       1.000000
      5      -5.606778       1.000000
      6      -1.765971       1.000000
      7      -1.803025       1.000000
      8       0.886314       1.000000
        1       8.750000       1.300000

 Density error is 0.318444303417
                          Error Threshold = 0.010000000000

       Energy                       Rydberg                            eV
   E_KohnSham              -15.153344300969             -206.171826249008
     E_Harris              -15.306792926923             -208.259601912250
       E_band               -5.504577491655              -74.893618969055
   E_one_elec              -24.359929559958             -331.433844894056
    E_Hartree              +12.240593316075             +166.541815999332
         E_xc               -4.440745472204              -60.419441789681
      E_Ewald               +0.429356852206               +5.841699665352
      E_demet               -0.000000021013               -0.000000285896
      E_descf               +0.977380583924              +13.297945055940
     E_efield               +0.000000000000               +0.000000000000
      E_Fermi               -0.448415271096               -6.101002757121

 PW ALGORITHM --------------- ION=   1  ELEC=   2--------------------------------
  K-point    CG iter num      Time(Sec)
 Energy (eV) & Occupations  for spin=1 K-point=1
      1     -13.493656       2.000000
      2      -8.034429       2.000000
      3      -5.291623       2.000000
      4      -5.263344       2.000000
      5      -4.845510       0.000000
      6      -1.320545       0.000000
      7      -1.319580       0.000000
      8      -0.026691       0.000000
        1       3.250000       0.580000

 Density error is 0.030826985913
                          Error Threshold = 0.003980553793

       Energy                       Rydberg                            eV
   E_KohnSham              -15.209295485192             -206.933081164285
     E_Harris              -15.218324016701             -207.055920637387
       E_band               -4.714994500120              -64.150791240299
   E_one_elec              -23.550252136616             -320.417618394648
    E_Hartree              +12.280593844309             +167.086051106325
         E_xc               -4.442355236238              -60.441343752971
      E_Ewald               +0.429356852206               +5.841699665352
      E_demet               -0.001303211306               -0.017731099458
      E_descf               +0.074664402452               +1.015861311116
     E_efield               +0.000000000000               +0.000000000000
      E_Fermi               -0.370974370919               -5.047365256466

 PW ALGORITHM --------------- ION=   1  ELEC=   3--------------------------------
  K-point    CG iter num      Time(Sec)
 Energy (eV) & Occupations  for spin=1 K-point=1
      1     -13.342614       2.000000
      2      -8.109108       2.000000
      3      -5.179933       1.988879
      4      -5.159900       1.975228
      5      -4.891648       0.035893
      6      -1.358108       0.000000
      7      -1.346370       0.000000
      8      -0.090170       0.000000
        1       2.750000       0.500000

 Density error is 0.001622901196
                          Error Threshold = 0.000385337324

       Energy                       Rydberg                            eV
   E_KohnSham              -15.215450087825             -207.016818829020
     E_Harris              -15.215856055604             -207.022342304017
       E_band               -4.669043923114              -63.525601566627
   E_one_elec              -23.421596783500             -318.667172514079
    E_Hartree              +12.253025271011             +166.710961423739
         E_xc               -4.437150036107              -60.370523371960
      E_Ewald               +0.429356852206               +5.841699665352
      E_demet               -0.005552258437               -0.075542351513
      E_descf               -0.033533132998               -0.456241680559
     E_efield               +0.000000000000               +0.000000000000
      E_Fermi               -0.368427689607               -5.012715879633

 PW ALGORITHM --------------- ION=   1  ELEC=   4--------------------------------
  K-point    CG iter num      Time(Sec)
 Energy (eV) & Occupations  for spin=1 K-point=1
      1     -13.399549       2.000000
      2      -8.152443       2.000000
      3      -5.212373       1.917808
      4      -5.209048       1.873952
      5      -4.938836       0.208241
      6      -1.388225       0.000000
      7      -1.386297       0.000000
      8      -0.126750       0.000000
        1       3.875000       0.650000

 Density error is 0.001598364092
                          Error Threshold = 0.000020286265

       Energy                       Rydberg                            eV
   E_KohnSham              -15.216075974655             -207.025334456212
     E_Harris              -15.216647019686             -207.033103922453
       E_band               -4.695612071142              -63.887079765107
   E_one_elec              -23.374822484337             -318.030775525494
    E_Hartree              +12.224740646768             +166.326129368256
         E_xc               -4.432545283527              -60.307872498991
      E_Ewald               +0.429356852206               +5.841699665352
      E_demet               -0.005801180523               -0.078929110237
      E_descf               -0.057004525244               -0.775586355099
     E_efield               +0.000000000000               +0.000000000000
      E_Fermi               -0.371674241325               -5.056887481841

 PW ALGORITHM --------------- ION=   1  ELEC=   5--------------------------------
  K-point    CG iter num      Time(Sec)
 Energy (eV) & Occupations  for spin=1 K-point=1
      1     -13.469424       2.000000
      2      -8.174515       2.000000
      3      -5.257339       1.893940
      4      -5.255167       1.886259
      5      -4.969712       0.219801
      6      -1.410441       0.000000
      7      -1.409220       0.000000
      8      -0.144207       0.000000
        1       2.250000       0.450000

 Density error is 0.000520458926
                          Error Threshold = 0.000019979551

       Energy                       Rydberg                            eV
   E_KohnSham              -15.216337311651             -207.028890128449
     E_Harris              -15.216467233599             -207.030657807248
       E_band               -4.722900148434              -64.258353103746
   E_one_elec              -23.406021817135             -318.455264225348
    E_Hartree              +12.193746049521             +165.904426238481
         E_xc               -4.427231779737              -60.235578571102
      E_Ewald               +0.429356852206               +5.841699665352
      E_demet               -0.005197342281               -0.070713469474
      E_descf               -0.000989274226               -0.013459766357
     E_efield               +0.000000000000               +0.000000000000
      E_Fermi               -0.374526945642               -5.095700515273

 PW ALGORITHM --------------- ION=   1  ELEC=   6--------------------------------
  K-point    CG iter num      Time(Sec)
 Energy (eV) & Occupations  for spin=1 K-point=1
      1     -13.542053       2.000000
      2      -8.210394       2.000000
      3      -5.302146       1.907065
      4      -5.301535       1.902589
      5      -5.013540       0.190347
      6      -1.439625       0.000000
      7      -1.439212       0.000000
      8      -0.167920       0.000000
        1       2.750000       0.490000

 Density error is 0.000160015757
                          Error Threshold = 0.000006505737

       Energy                       Rydberg                            eV
   E_KohnSham              -15.216370732421             -207.029344841358
     E_Harris              -15.216440912661             -207.030299692509
       E_band               -4.752298701938              -64.658340944367
   E_one_elec              -23.439486319732             -318.910572141402
    E_Hartree              +12.205622257275             +166.066010334567
         E_xc               -4.429415032860              -60.265283253759
      E_Ewald               +0.429356852206               +5.841699665352
      E_demet               -0.005127029084               -0.069756809350
      E_descf               +0.022678539773               +0.308557363234
     E_efield               +0.000000000000               +0.000000000000
      E_Fermi               -0.377818376437               -5.140482728653

 PW ALGORITHM --------------- ION=   1  ELEC=   7--------------------------------
  K-point    CG iter num      Time(Sec)
 Energy (eV) & Occupations  for spin=1 K-point=1
      1     -13.508100       2.000000
      2      -8.211887       2.000000
      3      -5.279567       1.907116
      4      -5.278079       1.905874
      5      -5.009158       0.187010
      6      -1.436092       0.000000
      7      -1.435152       0.000000
      8      -0.171499       0.000000
        1       2.500000       0.470000

 Density error is 0.000067986672
                          Error Threshold = 0.000002000197

       Energy                       Rydberg                            eV
   E_KohnSham              -15.216412319072             -207.029910656778
     E_Harris              -15.216417493326             -207.029981056104
       E_band               -4.740273772285              -64.494733383032
   E_one_elec              -23.413728738093             -318.560122264415
    E_Hartree              +12.205100066712             +166.058905567458
         E_xc               -4.429415644993              -60.265291582254
      E_Ewald               +0.429356852206               +5.841699665352
      E_demet               -0.005894600767               -0.080200157864
      E_descf               -0.001830254137               -0.024901885055
     E_efield               +0.000000000000               +0.000000000000
      E_Fermi               -0.376755513265               -5.126021733319

 PW ALGORITHM --------------- ION=   1  ELEC=   8--------------------------------
  K-point    CG iter num      Time(Sec)
 Energy (eV) & Occupations  for spin=1 K-point=1
      1     -13.509849       2.000000
      2      -8.210936       2.000000
      3      -5.280904       1.889510
      4      -5.279687       1.886013
      5      -5.008390       0.224477
      6      -1.435906       0.000000
      7      -1.435137       0.000000
      8      -0.171609       0.000000
        1       2.000000       0.390000

 Density error is 0.000040823492
                          Error Threshold = 0.000000849833

       Energy                       Rydberg                            eV
   E_KohnSham              -15.216402221714             -207.029773275168
     E_Harris              -15.216413461831             -207.029926204803
       E_band               -4.740882895843              -64.503020934199
   E_one_elec              -23.415475580231             -318.583889270991
    E_Hartree              +12.207088843076             +166.085964258060
         E_xc               -4.430328190457              -60.277707400239
      E_Ewald               +0.429356852206               +5.841699665352
      E_demet               -0.005799413895               -0.078905074034
      E_descf               -0.001244732414               -0.016935453316
     E_efield               +0.000000000000               +0.000000000000
      E_Fermi               -0.376788401441               -5.126469199904

 PW ALGORITHM --------------- ION=   1  ELEC=   9--------------------------------
  K-point    CG iter num      Time(Sec)
 Energy (eV) & Occupations  for spin=1 K-point=1
      1     -13.506624       2.000000
      2      -8.204235       2.000000
      3      -5.279705       1.891559
      4      -5.279628       1.888748
      5      -5.000792       0.219693
      6      -1.432369       0.000000
      7      -1.432313       0.000000
      8      -0.171802       0.000000
        1       2.250000       0.420000

 Density error is 0.000000404130
                          Error Threshold = 0.000000510294

       Energy                       Rydberg                            eV
   E_KohnSham              -15.216406913576             -207.029837111221
     E_Harris              -15.216407085421             -207.029839449300
       E_band               -4.739420855513              -64.483128855008
   E_one_elec              -23.418953217258             -318.631204950142
    E_Hartree              +12.207857547767             +166.096423021939
         E_xc               -4.430486530019              -60.279861720502
      E_Ewald               +0.429356852206               +5.841699665352
      E_demet               -0.005508359652               -0.074945077900
      E_descf               +0.001326793380               +0.018051950033
     E_efield               +0.000000000000               +0.000000000000
      E_Fermi               -0.376507342915               -5.122645202486

 PW ALGORITHM --------------- ION=   1  ELEC=  10--------------------------------
  K-point    CG iter num      Time(Sec)
 Energy (eV) & Occupations  for spin=1 K-point=1
      1     -13.504839       2.000000
      2      -8.203340       2.000000
      3      -5.278581       1.897430
      4      -5.278517       1.897262
      5      -4.999691       0.205308
      6      -1.431653       0.000000
      7      -1.431607       0.000000
      8      -0.171858       0.000000
        1       4.625000       0.740000

 Density error is 0.000000106952
                          Error Threshold = 0.000000005052

       Energy                       Rydberg                            eV
   E_KohnSham              -15.216407068466             -207.029839218612
     E_Harris              -15.216407065993             -207.029839184964
       E_band               -4.738697951727              -64.473293244421
   E_one_elec              -23.417985695466             -318.618041140824
    E_Hartree              +12.207738013604             +166.094796676218
         E_xc               -4.430451685052              -60.279387630413
      E_Ewald               +0.429356852206               +5.841699665352
      E_demet               -0.005509013050               -0.074953967841
      E_descf               +0.000444459292               +0.006047178897
     E_efield               +0.000000000000               +0.000000000000
      E_Fermi               -0.376425747277               -5.121535036878

 PW ALGORITHM --------------- ION=   1  ELEC=  11--------------------------------
  K-point    CG iter num      Time(Sec)
 Energy (eV) & Occupations  for spin=1 K-point=1
      1     -13.504974       2.000000
      2      -8.203740       2.000000
      3      -5.278641       1.897400
      4      -5.278630       1.897260
      5      -5.000064       0.205340
      6      -1.431848       0.000000
      7      -1.431845       0.000000
      8      -0.171852       0.000000
        1       2.375000       0.450000

 Density error is 0.000000012480
                          Error Threshold = 0.000000001337

       Energy                       Rydberg                            eV
   E_KohnSham              -15.216407076954             -207.029839334104
     E_Harris              -15.216407080299             -207.029839379614
       E_band               -4.738794527355              -64.474607223244
   E_one_elec              -23.417796858285             -318.615471879170
    E_Hartree              +12.208085890970             +166.099529790603
         E_xc               -4.430532133386              -60.280482186139
      E_Ewald               +0.429356852206               +5.841699665352
      E_demet               -0.005520828461               -0.075114724749
      E_descf               +0.000000000000               +0.000000000000
     E_efield               +0.000000000000               +0.000000000000
      E_Fermi               -0.376441787738               -5.121753278542
 charge density convergence is achieved
 final etot is -207.029839334104 eV

 STATE ENERGY(eV) AND OCCUPATIONS. 1/1 kpoint (Cartesian) = 0.00000 0.00000 0.00000 (16877 pws)
 [spin1_state]        1     -13.504974       2.000000
 [spin1_state]        2      -8.203740       2.000000
 [spin1_state]        3      -5.278641       1.897053
 [spin1_state]        4      -5.278630       1.897030
 [spin1_state]        5      -5.000064       0.205917
 [spin1_state]        6      -1.431848       0.000000
 [spin1_state]        7      -1.431845       0.000000
 [spin1_state]        8      -0.171852       0.000000



 --------------------------------------------
 !FINAL_ETOT_IS -207.0298393341037411 eV
 --------------------------------------------



 ><><><><><><><><><><><><><><><><><><><><><><

 Overlap Data For Spillage Minimization

 ><><><><><><><><><><><><><><><><><><><><><><

 File name : INPUTs
                                   smooth = 1
                                    sigma = 0.1000000000000000
                                     ecut = 100.0000000000000000
                                     rcut = 6.0000000000000000
                                tolerence = 0.0000000000010000
                                    kmesh = 1005
                                       dk = 0.0100000000000000
                                    rmesh = 605
                                       dr = 0.0100000000000000
                       number of k points = 1
                          number of bands = 8
                 number of local orbitals = 18
           number of eigenvalues of Jl(x) = 19
 --------------------------------------------------------
 Print the overlap matrixs Q and S for this kpoint
       ik     npw
        1   16877
 --------------------------------------------------------
 OUTPUT THE OVERLAP BETWEEN SPHERICAL BESSEL FUNCTIONS AND BLOCH WAVE FUNCTIONS
 Q = < J_mu, q | Psi_n, k > 

    ik   Type1   Atom1       L
     1      Si       1       0
     1      Si       1       1
     1      Si       1       2
     1      Si       2       0
     1      Si       2       1
     1      Si       2       2
 DONE : jlq3d_overlap Time : 12.3284420967102051 (SEC)

 OUTPUT THE OVERLAP BETWEEN SPHERICAL BESSEL FUNCTIONS
 S = < J_mu,q1 | J_nu,q2 >

    ik   Type1   Atom1      L1   Type2   Atom2      L2
     1      Si       1       0      Si       1       0
     1      Si       1       0      Si       1       1
     1      Si       1       0      Si       1       2
     1      Si       1       1      Si       1       0
     1      Si       1       1      Si       1       1
     1      Si       1       1      Si       1       2
     1      Si       1       2      Si       1       0
     1      Si       1       2      Si       1       1
     1      Si       1       2      Si       1       2
     1      Si       1       0      Si       2       0
     1      Si       1       0      Si       2       1
     1      Si       1       0      Si       2       2
     1      Si       1       1      Si       2       0
     1      Si       1       1      Si       2       1
     1      Si       1       1      Si       2       2
     1      Si       1       2      Si       2       0
     1      Si       1       2      Si       2       1
     1      Si       1       2      Si       2       2
     1      Si       2       0      Si       1       0
     1      Si       2       0      Si       1       1
     1      Si       2       0      Si       1       2
     1      Si       2       1      Si       1       0
     1      Si       2       1      Si       1       1
     1      Si       2       1      Si       1       2
     1      Si       2       2      Si       1       0
     1      Si       2       2      Si       1       1
     1      Si       2       2      Si       1       2
     1      Si       2       0      Si       2       0
     1      Si       2       0      Si       2       1
     1      Si       2       0      Si       2       2
     1      Si       2       1      Si       2       0
     1      Si       2       1      Si       2       1
     1      Si       2       1      Si       2       2
     1      Si       2       2      Si       2       0
     1      Si       2       2      Si       2       1
     1      Si       2       2      Si       2       2
 DONE : Sq_overlap Time : 42.1185910701751709 (SEC)


 ik=0 DONE : BASIS OVERLAP (Q and S) GENERATION. Time : 42.2667312622070312 (SEC)





  |CLASS_NAME---------|NAME---------------|TIME(Sec)-----|CALLS----|AVG------|PER%-------
  A             DC_Driv             reading          0.199         1      0.20      0.47%
  B            Run_Frag           frag_init           0.12         1      0.12      0.29%
  A             DC_Driv         divide_frag           0.57         1      0.57      1.34%
  B            PW_Basis              gen_pw           0.56         1      0.56      1.34%
  A             DC_Driv         solve_eachf          41.51         1     41.51     98.19%
  B            Run_Frag        frag_pw_line          41.51         1     41.51     98.19%
  X                 FFT               FFT3D           6.70      1034      0.01     15.85%
  E           potential            v_of_rho           2.09        12      0.17      4.93%
  C            wavefunc             wfcinit           0.20         1      0.20      0.47%
  G           Hamilt_PW            cinitcgg           1.67        12      0.14      3.95%
  H           Hamilt_PW               h_psi           6.12       395      0.02     14.47%
  I           Hamilt_PW          add_vuspsi           0.19       395      0.00      0.45%
  C                Ions         opt_ions_pw          10.22         1     10.22     24.16%
  D           electrons     self_consistent          10.22         1     10.22     24.16%
  E           electrons             c_bands           6.50        11      0.59     15.38%
  F              Hamilt               diago           6.43        11      0.58     15.21%
  G            Diago_CG                diag           4.93        11      0.45     11.66%
  E              Charge             mix_rho           0.55        11      0.05      1.31%
 ----------------------------------------------------------------------------------------

 CLASS_NAME---------|NAME---------------|MEMORY(MB)--------
                                         73.4309
         Charge_Pulay                Rrho        16.0000
         Charge_Pulay               dRrho        14.0000
         Charge_Pulay                drho        14.0000
              Use_FFT              porter         4.0000
             PW_Basis           struc_fac         2.0614
             wavefunc                 evc         2.0602
               Charge                 rho         2.0000
               Charge            rho_save         2.0000
               Charge            rho_core         2.0000
            potential               vltot         2.0000
            potential                  vr         2.0000
            potential                 vrs         2.0000
            potential                vrs1         2.0000
            potential                vnew         2.0000
         Charge_Pulay           rho_save2         2.0000
               Charge                rhog         1.0307
               Charge           rhog_save         1.0307
               Charge           rhog_core         1.0307
 ----------------------------------------------------------

 Start  Time  : Wed Oct  9 18:34:53 2019
 Finish Time  : Wed Oct  9 18:35:36 2019
 Total  Time  : 0 h 0 mins 43 secs 
