<PP_INFO>
Generated using ld1 code (maybe, or maybe not)                                  
Author: unknown    Generation date: as well                                     
Info: automatically converted from PWSCF format                                 
    0        The Pseudo was generated with a Non-Relativistic Calculation
nl pn  l   occ               Rcut            Rcut US             E pseu
*S  0  0  2.00      0.00000000000      0.00000000000      0.00000000000
*P  0  1  2.00      0.00000000000      0.00000000000      0.00000000000
</PP_INFO>


<PP_HEADER>
   0                   Version Number
  C                    Element
   NC                  Norm - Conserving pseudopotential
    F                  Nonlinear Core Correction
SLA  PZ   NOGX NOGC    PZ   Exchange-Correlation functional
    4.00000000000      Z valence
    0.00000000000      Total energy
  0.0000000  0.0000000 Suggested cutoff for wfc and rho
    1                  Max angular momentum component
 1122                  Number of points in mesh
    2    1             Number of Wavefunctions, Number of Projectors
 Wavefunctions         nl  l   occ
                       *S  0  2.00
                       *P  1  2.00
</PP_HEADER>


<PP_MESH>
  <PP_R>
  5.50321240705E-05  5.57522121145E-05  5.64817224150E-05  5.72207782611E-05
  5.79695045548E-05  5.87280278328E-05  5.94964762873E-05  6.02749797879E-05
  6.10636699036E-05  6.18626799248E-05  6.26721448861E-05  6.34922015891E-05
  6.43229886253E-05  6.51646463996E-05  6.60173171543E-05  6.68811449927E-05
  6.77562759038E-05  6.86428577868E-05  6.95410404761E-05  7.04509757668E-05
  7.13728174401E-05  7.23067212894E-05  7.32528451467E-05  7.42113489092E-05
  7.51823945663E-05  7.61661462269E-05  7.71627701476E-05  7.81724347601E-05
  7.91953107002E-05  8.02315708362E-05  8.12813902987E-05  8.23449465095E-05
  8.34224192124E-05  8.45139905026E-05  8.56198448584E-05  8.67401691717E-05
  8.78751527801E-05  8.90249874984E-05  9.01898676516E-05  9.13699901070E-05
  9.25655543082E-05  9.37767623084E-05  9.50038188046E-05  9.62469311724E-05
  9.75063095006E-05  9.87821666271E-05  1.00074718175E-04  1.01384182588E-04
  1.02710781170E-04  1.04054738118E-04  1.05416280564E-04  1.06795638613E-04
  1.08193045379E-04  1.09608737027E-04  1.11042952812E-04  1.12495935121E-04
  1.13967929511E-04  1.15459184752E-04  1.16969952870E-04  1.18500489188E-04
  1.20051052371E-04  1.21621904468E-04  1.23213310956E-04  1.24825540787E-04
  1.26458866431E-04  1.28113563925E-04  1.29789912916E-04  1.31488196711E-04
  1.33208702324E-04  1.34951720525E-04  1.36717545888E-04  1.38506476842E-04
  1.40318815720E-04  1.42154868812E-04  1.44014946415E-04  1.45899362886E-04
  1.47808436698E-04  1.49742490486E-04  1.51701851113E-04  1.53686849713E-04
  1.55697821756E-04  1.57735107102E-04  1.59799050056E-04  1.61889999431E-04
  1.64008308600E-04  1.66154335564E-04  1.68328443006E-04  1.70530998356E-04
  1.72762373850E-04  1.75022946597E-04  1.77313098638E-04  1.79633217014E-04
  1.81983693833E-04  1.84364926328E-04  1.86777316935E-04  1.89221273353E-04
  1.91697208616E-04  1.94205541164E-04  1.96746694911E-04  1.99321099317E-04
  2.01929189464E-04  2.04571406124E-04  2.07248195839E-04  2.09960010992E-04
  2.12707309887E-04  2.15490556823E-04  2.18310222176E-04  2.21166782477E-04
  2.24060720490E-04  2.26992525298E-04  2.29962692383E-04  2.32971723711E-04
  2.36020127814E-04  2.39108419881E-04  2.42237121839E-04  2.45406762448E-04
  2.48617877384E-04  2.51871009333E-04  2.55166708082E-04  2.58505530612E-04
  2.61888041192E-04  2.65314811474E-04  2.68786420590E-04  2.72303455252E-04
  2.75866509846E-04  2.79476186536E-04  2.83133095367E-04  2.86837854365E-04
  2.90591089643E-04  2.94393435507E-04  2.98245534562E-04  3.02148037823E-04
  3.06101604821E-04  3.10106903718E-04  3.14164611421E-04  3.18275413690E-04
  3.22440005262E-04  3.26659089963E-04  3.30933380827E-04  3.35263600220E-04
  3.39650479959E-04  3.44094761438E-04  3.48597195751E-04  3.53158543819E-04
  3.57779576522E-04  3.62461074825E-04  3.67203829912E-04  3.72008643321E-04
  3.76876327075E-04  3.81807703826E-04  3.86803606988E-04  3.91864880879E-04
  3.96992380869E-04  4.02186973515E-04  4.07449536717E-04  4.12780959861E-04
  4.18182143970E-04  4.23654001856E-04  4.29197458276E-04  4.34813450089E-04
  4.40502926410E-04  4.46266848773E-04  4.52106191297E-04  4.58021940842E-04
  4.64015097186E-04  4.70086673186E-04  4.76237694952E-04  4.82469202022E-04
  4.88782247536E-04  4.95177898413E-04  5.01657235533E-04  5.08221353920E-04
  5.14871362926E-04  5.21608386417E-04  5.28433562967E-04  5.35348046047E-04
  5.42353004221E-04  5.49449621343E-04  5.56639096759E-04  5.63922645508E-04
  5.71301498525E-04  5.78776902856E-04  5.86350121861E-04  5.94022435432E-04
  6.01795140208E-04  6.09669549795E-04  6.17646994988E-04  6.25728823992E-04
  6.33916402657E-04  6.42211114703E-04  6.50614361956E-04  6.59127564585E-04
  6.67752161341E-04  6.76489609801E-04  6.85341386616E-04  6.94308987756E-04
  7.03393928767E-04  7.12597745027E-04  7.21921992001E-04  7.31368245511E-04
  7.40938101995E-04  7.50633178781E-04  7.60455114361E-04  7.70405568666E-04
  7.80486223345E-04  7.90698782054E-04  8.01044970738E-04  8.11526537930E-04
  8.22145255037E-04  8.32902916650E-04  8.43801340838E-04  8.54842369461E-04
  8.66027868479E-04  8.77359728268E-04  8.88839863939E-04  9.00470215663E-04
  9.12252748996E-04  9.24189455215E-04  9.36282351652E-04  9.48533482035E-04
  9.60944916834E-04  9.73518753611E-04  9.86257117374E-04  9.99162160937E-04
  1.01223606528E-03  1.02548103994E-03  1.03889932332E-03  1.05249318317E-03
  1.06626491687E-03  1.08021685188E-03  1.09435134610E-03  1.10867078831E-03
  1.12317759852E-03  1.13787422842E-03  1.15276316177E-03  1.16784691484E-03
  1.18312803682E-03  1.19860911025E-03  1.21429275147E-03  1.23018161106E-03
  1.24627837427E-03  1.26258576149E-03  1.27910652871E-03  1.29584346798E-03
  1.31279940788E-03  1.32997721400E-03  1.34737978943E-03  1.36501007526E-03
  1.38287105104E-03  1.40096573532E-03  1.41929718614E-03  1.43786850157E-03
  1.45668282019E-03  1.47574332168E-03  1.49505322730E-03  1.51461580048E-03
  1.53443434733E-03  1.55451221723E-03  1.57485280340E-03  1.59545954345E-03
  1.61633591995E-03  1.63748546107E-03  1.65891174114E-03  1.68061838123E-03
  1.70260904983E-03  1.72488746341E-03  1.74745738708E-03  1.77032263521E-03
  1.79348707208E-03  1.81695461252E-03  1.84072922263E-03  1.86481492035E-03
  1.88921577624E-03  1.91393591408E-03  1.93897951165E-03  1.96435080138E-03
  1.99005407106E-03  2.01609366462E-03  2.04247398280E-03  2.06919948396E-03
  2.09627468474E-03  2.12370416094E-03  2.15149254820E-03  2.17964454282E-03
  2.20816490255E-03  2.23705844741E-03  2.26633006047E-03  2.29598468871E-03
  2.32602734382E-03  2.35646310309E-03  2.38729711023E-03  2.41853457627E-03
  2.45018078040E-03  2.48224107092E-03  2.51472086609E-03  2.54762565507E-03
  2.58096099885E-03  2.61473253118E-03  2.64894595953E-03  2.68360706606E-03
  2.71872170856E-03  2.75429582151E-03  2.79033541700E-03  2.82684658582E-03
  2.86383549844E-03  2.90130840608E-03  2.93927164174E-03  2.97773162131E-03
  3.01669484461E-03  3.05616789651E-03  3.09615744807E-03  3.13667025760E-03
  3.17771317188E-03  3.21929312724E-03  3.26141715080E-03  3.30409236162E-03
  3.34732597192E-03  3.39112528827E-03  3.43549771287E-03  3.48045074476E-03
  3.52599198110E-03  3.57212911849E-03  3.61886995420E-03  3.66622238754E-03
  3.71419442119E-03  3.76279416254E-03  3.81202982506E-03  3.86190972969E-03
  3.91244230626E-03  3.96363609489E-03  4.01549974746E-03  4.06804202903E-03
  4.12127181940E-03  4.17519811451E-03  4.22983002804E-03  4.28517679291E-03
  4.34124776286E-03  4.39805241401E-03  4.45560034649E-03  4.51390128603E-03
  4.57296508564E-03  4.63280172722E-03  4.69342132333E-03  4.75483411881E-03
  4.81705049257E-03  4.88008095933E-03  4.94393617139E-03  5.00862692043E-03
  5.07416413933E-03  5.14055890406E-03  5.20782243547E-03  5.27596610128E-03
  5.34500141791E-03  5.41494005250E-03  5.48579382485E-03  5.55757470941E-03
  5.63029483732E-03  5.70396649846E-03  5.77860214352E-03  5.85421438610E-03
  5.93081600483E-03  6.00841994559E-03  6.08703932362E-03  6.16668742579E-03
  6.24737771280E-03  6.32912382152E-03  6.41193956723E-03  6.49583894598E-03
  6.58083613698E-03  6.66694550495E-03  6.75418160258E-03  6.84255917297E-03
  6.93209315215E-03  7.02279867158E-03  7.11469106069E-03  7.20778584952E-03
  7.30209877132E-03  7.39764576519E-03  7.49444297881E-03  7.59250677112E-03
  7.69185371515E-03  7.79250060076E-03  7.89446443752E-03  7.99776245756E-03
  8.10241211850E-03  8.20843110636E-03  8.31583733862E-03  8.42464896718E-03
  8.53488438147E-03  8.64656221153E-03  8.75970133119E-03  8.87432086122E-03
  8.99044017260E-03  9.10807888976E-03  9.22725689394E-03  9.34799432649E-03
  9.47031159233E-03  9.59422936337E-03  9.71976858201E-03  9.84695046468E-03
  9.97579650541E-03  1.01063284795E-02  1.02385684471E-02  1.03725387572E-02
  1.05082620510E-02  1.06457612662E-02  1.07850596403E-02  1.09261807151E-02
  1.10691483405E-02  1.12139866784E-02  1.13607202066E-02  1.15093737236E-02
  1.16599723522E-02  1.18125415439E-02  1.19671070831E-02  1.21236950920E-02
  1.22823320342E-02  1.24430447197E-02  1.26058603094E-02  1.27708063195E-02
  1.29379106263E-02  1.31072014708E-02  1.32787074635E-02  1.34524575893E-02
  1.36284812126E-02  1.38068080815E-02  1.39874683340E-02  1.41704925018E-02
  1.43559115166E-02  1.45437567146E-02  1.47340598422E-02  1.49268530609E-02
  1.51221689533E-02  1.53200405282E-02  1.55205012265E-02  1.57235849264E-02
  1.59293259496E-02  1.61377590667E-02  1.63489195036E-02  1.65628429468E-02
  1.67795655499E-02  1.69991239394E-02  1.72215552214E-02  1.74468969872E-02
  1.76751873201E-02  1.79064648018E-02  1.81407685186E-02  1.83781380685E-02
  1.86186135674E-02  1.88622356564E-02  1.91090455080E-02  1.93590848339E-02
  1.96123958911E-02  1.98690214900E-02  2.01290050008E-02  2.03923903613E-02
  2.06592220843E-02  2.09295452650E-02  2.12034055887E-02  2.14808493384E-02
  2.17619234028E-02  2.20466752840E-02  2.23351531058E-02  2.26274056217E-02
  2.29234822229E-02  2.32234329473E-02  2.35273084870E-02  2.38351601979E-02
  2.41470401076E-02  2.44630009245E-02  2.47830960468E-02  2.51073795714E-02
  2.54359063028E-02  2.57687317630E-02  2.61059122001E-02  2.64475045986E-02
  2.67935666882E-02  2.71441569544E-02  2.74993346478E-02  2.78591597941E-02
  2.82236932048E-02  2.85929964868E-02  2.89671320532E-02  2.93461631340E-02
  2.97301537861E-02  3.01191689050E-02  3.05132742351E-02  3.09125363811E-02
  3.13170228194E-02  3.17268019091E-02  3.21419429039E-02  3.25625159635E-02
  3.29885921657E-02  3.34202435186E-02  3.38575429722E-02  3.43005644311E-02
  3.47493827671E-02  3.52040738314E-02  3.56647144680E-02  3.61313825263E-02
  3.66041568741E-02  3.70831174116E-02  3.75683450843E-02  3.80599218966E-02
  3.85579309264E-02  3.90624563382E-02  3.95735833981E-02  4.00913984879E-02
  4.06159891193E-02  4.11474439497E-02  4.16858527959E-02  4.22313066505E-02
  4.27838976965E-02  4.33437193230E-02  4.39108661412E-02  4.44854340003E-02
  4.50675200037E-02  4.56572225251E-02  4.62546412259E-02  4.68598770711E-02
  4.74730323471E-02  4.80942106785E-02  4.87235170460E-02  4.93610578039E-02
  5.00069406980E-02  5.06612748841E-02  5.13241709462E-02  5.19957409154E-02
  5.26760982886E-02  5.33653580477E-02  5.40636366794E-02  5.47710521943E-02
  5.54877241474E-02  5.62137736580E-02  5.69493234301E-02  5.76944977734E-02
  5.84494226242E-02  5.92142255665E-02  5.99890358538E-02  6.07739844310E-02
  6.15692039562E-02  6.23748288234E-02  6.31909951852E-02  6.40178409755E-02
  6.48555059333E-02  6.57041316260E-02  6.65638614733E-02  6.74348407717E-02
  6.83172167186E-02  6.92111384378E-02  7.01167570040E-02  7.10342254691E-02
  7.19636988874E-02  7.29053343421E-02  7.38592909718E-02  7.48257299974E-02
  7.58048147495E-02  7.67967106958E-02  7.78015854689E-02  7.88196088951E-02
  7.98509530229E-02  8.08957921517E-02  8.19543028620E-02  8.30266640445E-02
  8.41130569309E-02  8.52136651240E-02  8.63286746294E-02  8.74582738863E-02
  8.86026537996E-02  8.97620077723E-02  9.09365317380E-02  9.21264241939E-02
  9.33318862348E-02  9.45531215866E-02  9.57903366411E-02  9.70437404904E-02
  9.83135449628E-02  9.95999646583E-02  1.00903216985E-01  1.02223522195E-01
  1.03561103424E-01  1.04916186726E-01  1.06289001113E-01  1.07679778595E-01
  1.09088754215E-01  1.10516166094E-01  1.11962255469E-01  1.13427266731E-01
  1.14911447471E-01  1.16415048519E-01  1.17938323988E-01  1.19481531314E-01
  1.21044931303E-01  1.22628788174E-01  1.24233369602E-01  1.25858946765E-01
  1.27505794389E-01  1.29174190796E-01  1.30864417949E-01  1.32576761500E-01
  1.34311510839E-01  1.36068959143E-01  1.37849403426E-01  1.39653144585E-01
  1.41480487458E-01  1.43331740871E-01  1.45207217689E-01  1.47107234872E-01
  1.49032113528E-01  1.50982178966E-01  1.52957760751E-01  1.54959192762E-01
  1.56986813246E-01  1.59040964874E-01  1.61121994804E-01  1.63230254735E-01
  1.65366100967E-01  1.67529894464E-01  1.69722000912E-01  1.71942790782E-01
  1.74192639393E-01  1.76471926974E-01  1.78781038732E-01  1.81120364910E-01
  1.83490300861E-01  1.85891247110E-01  1.88323609421E-01  1.90787798871E-01
  1.93284231913E-01  1.95813330451E-01  1.98375521907E-01  2.00971239299E-01
  2.03600921308E-01  2.06265012358E-01  2.08963962685E-01  2.11698228420E-01
  2.14468271659E-01  2.17274560547E-01  2.20117569352E-01  2.22997778551E-01
  2.25915674904E-01  2.28871751545E-01  2.31866508056E-01  2.34900450560E-01
  2.37974091798E-01  2.41087951224E-01  2.44242555088E-01  2.47438436525E-01
  2.50676135647E-01  2.53956199632E-01  2.57279182819E-01  2.60645646801E-01
  2.64056160517E-01  2.67511300353E-01  2.71011650235E-01  2.74557801732E-01
  2.78150354150E-01  2.81789914640E-01  2.85477098296E-01  2.89212528262E-01
  2.92996835833E-01  2.96830660567E-01  3.00714650389E-01  3.04649461702E-01
  3.08635759500E-01  3.12674217475E-01  3.16765518138E-01  3.20910352927E-01
  3.25109422329E-01  3.29363435998E-01  3.33673112871E-01  3.38039181294E-01
  3.42462379144E-01  3.46943453951E-01  3.51483163027E-01  3.56082273595E-01
  3.60741562914E-01  3.65461818416E-01  3.70243837835E-01  3.75088429344E-01
  3.79996411690E-01  3.84968614334E-01  3.90005877590E-01  3.95109052768E-01
  4.00279002316E-01  4.05516599968E-01  4.10822730891E-01  4.16198291833E-01
  4.21644191277E-01  4.27161349593E-01  4.32750699194E-01  4.38413184693E-01
  4.44149763063E-01  4.49961403801E-01  4.55849089086E-01  4.61813813953E-01
  4.67856586454E-01  4.73978427831E-01  4.80180372690E-01  4.86463469176E-01
  4.92828779145E-01  4.99277378352E-01  5.05810356623E-01  5.12428818049E-01
  5.19133881164E-01  5.25926679141E-01  5.32808359979E-01  5.39780086697E-01
  5.46843037535E-01  5.53998406148E-01  5.61247401810E-01  5.68591249619E-01
  5.76031190702E-01  5.83568482427E-01  5.91204398615E-01  5.98940229754E-01
  6.06777283217E-01  6.14716883484E-01  6.22760372369E-01  6.30909109238E-01
  6.39164471248E-01  6.47527853576E-01  6.56000669652E-01  6.64584351402E-01
  6.73280349490E-01  6.82090133559E-01  6.91015192484E-01  7.00057034621E-01
  7.09217188063E-01  7.18497200898E-01  7.27898641470E-01  7.37423098645E-01
  7.47072182079E-01  7.56847522490E-01  7.66750771933E-01  7.76783604082E-01
  7.86947714509E-01  7.97244820972E-01  8.07676663708E-01  8.18245005722E-01
  8.28951633090E-01  8.39798355257E-01  8.50787005344E-01  8.61919440461E-01
  8.73197542014E-01  8.84623216030E-01  8.96198393475E-01  9.07925030582E-01
  9.19805109180E-01  9.31840637030E-01  9.44033648166E-01  9.56386203236E-01
  9.68900389850E-01  9.81578322936E-01  9.94422145095E-01  1.00743402696E+00
  1.02061616758E+00  1.03397079476E+00  1.04750016546E+00  1.06120656619E+00
  1.07509231335E+00  1.08915975366E+00  1.10341126458E+00  1.11784925462E+00
  1.13247616384E+00  1.14729446423E+00  1.16230666012E+00  1.17751528860E+00
  1.19292291996E+00  1.20853215814E+00  1.22434564113E+00  1.24036604145E+00
  1.25659606658E+00  1.27303845943E+00  1.28969599882E+00  1.30657149990E+00
  1.32366781467E+00  1.34098783245E+00  1.35853448037E+00  1.37631072385E+00
  1.39431956712E+00  1.41256405371E+00  1.43104726699E+00  1.44977233067E+00
  1.46874240932E+00  1.48796070893E+00  1.50743047744E+00  1.52715500529E+00
  1.54713762597E+00  1.56738171660E+00  1.58789069846E+00  1.60866803763E+00
  1.62971724553E+00  1.65104187952E+00  1.67264554352E+00  1.69453188860E+00
  1.71670461360E+00  1.73916746576E+00  1.76192424137E+00  1.78497878637E+00
  1.80833499703E+00  1.83199682060E+00  1.85596825600E+00  1.88025335446E+00
  1.90485622020E+00  1.92978101119E+00  1.95503193975E+00  1.98061327337E+00
  2.00652933534E+00  2.03278450555E+00  2.05938322117E+00  2.08632997746E+00
  2.11362932849E+00  2.14128588790E+00  2.16930432972E+00  2.19768938914E+00
  2.22644586329E+00  2.25557861210E+00  2.28509255906E+00  2.31499269210E+00
  2.34528406441E+00  2.37597179532E+00  2.40706107111E+00  2.43855714595E+00
  2.47046534276E+00  2.50279105408E+00  2.53553974305E+00  2.56871694428E+00
  2.60232826478E+00  2.63637938495E+00  2.67087605951E+00  2.70582411849E+00
  2.74122946817E+00  2.77709809217E+00  2.81343605235E+00  2.85024948992E+00
  2.88754462644E+00  2.92532776487E+00  2.96360529066E+00  3.00238367279E+00
  3.04166946491E+00  3.08146930642E+00  3.12178992356E+00  3.16263813064E+00
  3.20402083108E+00  3.24594501868E+00  3.28841777870E+00  3.33144628916E+00
  3.37503782197E+00  3.41919974421E+00  3.46393951934E+00  3.50926470849E+00
  3.55518297173E+00  3.60170206936E+00  3.64882986320E+00  3.69657431798E+00
  3.74494350262E+00  3.79394559162E+00  3.84358886646E+00  3.89388171696E+00
  3.94483264274E+00  3.99645025463E+00  4.04874327612E+00  4.10172054486E+00
  4.15539101414E+00  4.20976375439E+00  4.26484795473E+00  4.32065292453E+00
  4.37718809495E+00  4.43446302058E+00  4.49248738102E+00  4.55127098251E+00
  4.61082375964E+00  4.67115577695E+00  4.73227723071E+00  4.79419845059E+00
  4.85692990141E+00  4.92048218494E+00  4.98486604168E+00  5.05009235264E+00
  5.11617214123E+00  5.18311657509E+00  5.25093696798E+00  5.31964478173E+00
  5.38925162810E+00  5.45976927082E+00  5.53120962754E+00  5.60358477186E+00
  5.67690693534E+00  5.75118850960E+00  5.82644204841E+00  5.90268026979E+00
  5.97991605819E+00  6.05816246663E+00  6.13743271895E+00  6.21774021201E+00
  6.29909851796E+00  6.38152138656E+00  6.46502274745E+00  6.54961671258E+00
  6.63531757852E+00  6.72213982893E+00  6.81009813696E+00  6.89920736779E+00
  6.98948258109E+00  7.08093903358E+00  7.17359218161E+00  7.26745768380E+00
  7.36255140364E+00  7.45888941219E+00  7.55648799080E+00  7.65536363386E+00
  7.75553305160E+00  7.85701317289E+00  7.95982114810E+00  8.06397435203E+00
  8.16949038682E+00  8.27638708493E+00  8.38468251215E+00  8.49439497068E+00
  8.60554300217E+00  8.71814539091E+00  8.83222116698E+00  8.94778960944E+00
  9.06487024964E+00  9.18348287449E+00  9.30364752981E+00  9.42538452370E+00
  9.54871443000E+00  9.67365809178E+00  9.80023662479E+00  9.92847142112E+00
  1.00583841528E+01  1.01899967752E+01  1.03233315314E+01  1.04584109552E+01
  1.05952578754E+01  1.07338954193E+01  1.08743470171E+01  1.10166364055E+01
  1.11607876316E+01  1.13068250574E+01  1.14547733635E+01  1.16046575536E+01
  1.17565029585E+01  1.19103352403E+01  1.20661803971E+01  1.22240647672E+01
  1.23840150333E+01  1.25460582273E+01  1.27102217351E+01  1.28765333007E+01
  1.30450210309E+01  1.32157134008E+01  1.33886392578E+01  1.35638278266E+01
  1.37413087146E+01  1.39211119165E+01  1.41032678194E+01  1.42878072081E+01
  1.44747612703E+01  1.46641616016E+01  1.48560402111E+01  1.50504295268E+01
  1.52473624008E+01  1.54468721154E+01  1.56489923882E+01  1.58537573779E+01
  1.60612016903E+01  1.62713603841E+01  1.64842689765E+01  1.66999634496E+01
  1.69184802562E+01  1.71398563263E+01  1.73641290729E+01  1.75913363986E+01
  1.78215167021E+01  1.80547088843E+01  1.82909523553E+01  1.85302870407E+01
  1.87727533888E+01  1.90183923769E+01  1.92672455185E+01  1.95193548705E+01
  1.97747630399E+01  2.00335131914E+01  2.02956490542E+01  2.05612149301E+01
  2.08302557002E+01  2.11028168331E+01  2.13789443923E+01  2.16586850440E+01
  2.19420860650E+01  2.22291953507E+01  2.25200614234E+01  2.28147334401E+01
  2.31132612010E+01  2.34156951580E+01  2.37220864233E+01  2.40324867777E+01
  2.43469486795E+01  2.46655252736E+01  2.49882704001E+01  2.53152386039E+01
  2.56464851432E+01  2.59820659995E+01  2.63220378869E+01  2.66664582612E+01
  2.70153853305E+01  2.73688780643E+01  2.77269962035E+01  2.80898002711E+01
  2.84573515819E+01  2.88297122527E+01  2.92069452136E+01  2.95891142177E+01
  2.99762838525E+01  3.03685195506E+01  3.07658876009E+01  3.11684551593E+01
  3.15762902609E+01  3.19894618307E+01  3.24080396957E+01  3.28320945965E+01
  3.32616981994E+01  3.36969231085E+01  3.41378428778E+01  3.45845320238E+01
  3.50370660381E+01  3.54955213998E+01  3.59599755892E+01  3.64305071001E+01
  3.69071954533E+01  3.73901212105E+01  3.78793659871E+01  3.83750124667E+01
  3.88771444147E+01  3.93858466927E+01  3.99012052726E+01  4.04233072510E+01
  4.09522408647E+01  4.14880955045E+01  4.20309617312E+01  4.25809312904E+01
  4.31380971284E+01  4.37025534075E+01  4.42743955221E+01  4.48537201150E+01
  4.54406250933E+01  4.60352096453E+01  4.66375742574E+01  4.72478207306E+01
  4.78660521979E+01  4.84923731419E+01  4.91268894125E+01  4.97697082442E+01
  5.04209382751E+01  5.10806895646E+01  5.17490736122E+01  5.24262033764E+01
  5.31121932938E+01  5.38071592982E+01  5.45112188406E+01  5.52244909088E+01
  5.59470960473E+01  5.66791563783E+01  5.74207956216E+01  5.81721391160E+01
  5.89333138403E+01  5.97044484350E+01  6.04856732236E+01  6.12771202349E+01
  6.20789232253E+01  6.28912177016E+01  6.37141409433E+01  6.45478320265E+01
  6.53924318469E+01  6.62480831440E+01  6.71149305248E+01  6.79931204885E+01
  6.88828014515E+01  6.97841237719E+01  7.06972397753E+01  7.16223037804E+01
  7.25594721254E+01  7.35089031938E+01  7.44707574419E+01  7.54451974252E+01
  7.64323878265E+01  7.74324954832E+01  7.84456894159E+01  7.94721408568E+01
  8.05120232788E+01  8.15655124242E+01  8.26327863354E+01  8.37140253842E+01
  8.48094123025E+01  8.59191322134E+01  8.70433726620E+01  8.81823236479E+01
  8.93361776563E+01  9.05051296914E+01  9.16893773087E+01  9.28891206491E+01
  9.41045624720E+01  9.53359081899E+01  9.65833659032E+01  9.78471464352E+01
  9.91274633678E+01  1.00424533078E+02  1.01738574773E+02  1.03069810529E+02
  1.04418465329E+02  1.05784767097E+02  1.07168946743E+02  1.08571238197E+02
  1.09991878448E+02  1.11431107588E+02  1.12889168850E+02  1.14366308651E+02
  1.15862776630E+02  1.17378825694E+02
  </PP_R>
  <PP_RAB>
  7.15417612916E-07  7.24778757488E-07  7.34262391395E-07  7.43870117394E-07
  7.53603559213E-07  7.63464361827E-07  7.73454191735E-07  7.83574737243E-07
  7.93827708746E-07  8.04214839022E-07  8.14737883519E-07  8.25398620658E-07
  8.36198852128E-07  8.47140403195E-07  8.58225123006E-07  8.69454884905E-07
  8.80831586750E-07  8.92357151229E-07  9.04033526190E-07  9.15862684969E-07
  9.27846626722E-07  9.39987376762E-07  9.52286986907E-07  9.64747535819E-07
  9.77371129361E-07  9.90159900950E-07  1.00311601192E-06  1.01624165188E-06
  1.02953903910E-06  1.04301042087E-06  1.05665807388E-06  1.07048430462E-06
  1.08449144976E-06  1.09868187653E-06  1.11305798316E-06  1.12762219923E-06
  1.14237698614E-06  1.15732483748E-06  1.17246827947E-06  1.18780987139E-06
  1.20335220601E-06  1.21909791001E-06  1.23504964446E-06  1.25121010524E-06
  1.26758202351E-06  1.28416816615E-06  1.30097133627E-06  1.31799437365E-06
  1.33524015521E-06  1.35271159553E-06  1.37041164734E-06  1.38834330197E-06
  1.40650958993E-06  1.42491358135E-06  1.44355838656E-06  1.46244715658E-06
  1.48158308364E-06  1.50096940177E-06  1.52060938731E-06  1.54050635945E-06
  1.56066368083E-06  1.58108475808E-06  1.60177304243E-06  1.62273203023E-06
  1.64396526360E-06  1.66547633102E-06  1.68726886790E-06  1.70934655724E-06
  1.73171313021E-06  1.75437236683E-06  1.77732809655E-06  1.80058419895E-06
  1.82414460436E-06  1.84801329455E-06  1.87219430339E-06  1.89669171752E-06
  1.92150967707E-06  1.94665237632E-06  1.97212406446E-06  1.99792904626E-06
  2.02407168283E-06  2.05055639233E-06  2.07738765073E-06  2.10456999260E-06
  2.13210801180E-06  2.16000636233E-06  2.18826975908E-06  2.21690297862E-06
  2.24591086005E-06  2.27529830575E-06  2.30507028229E-06  2.33523182119E-06
  2.36578801982E-06  2.39674404226E-06  2.42810512015E-06  2.45987655358E-06
  2.49206371201E-06  2.52467203513E-06  2.55770703384E-06  2.59117429112E-06
  2.62507946303E-06  2.65942827961E-06  2.69422654590E-06  2.72948014289E-06
  2.76519502853E-06  2.80137723870E-06  2.83803288829E-06  2.87516817220E-06
  2.91278936637E-06  2.95090282887E-06  2.98951500098E-06  3.02863240824E-06
  3.06826166158E-06  3.10840945845E-06  3.14908258391E-06  3.19028791183E-06
  3.23203240599E-06  3.27432312133E-06  3.31716720506E-06  3.36057189795E-06
  3.40454453549E-06  3.44909254916E-06  3.49422346768E-06  3.53994491828E-06
  3.58626462799E-06  3.63319042497E-06  3.68073023977E-06  3.72889210675E-06
  3.77768416536E-06  3.82711466159E-06  3.87719194931E-06  3.92792449170E-06
  3.97932086267E-06  4.03138974834E-06  4.08413994847E-06  4.13758037798E-06
  4.19172006841E-06  4.24656816952E-06  4.30213395075E-06  4.35842680286E-06
  4.41545623947E-06  4.47323189870E-06  4.53176354476E-06  4.59106106965E-06
  4.65113449479E-06  4.71199397273E-06  4.77364978886E-06  4.83611236317E-06
  4.89939225198E-06  4.96350014974E-06  5.02844689084E-06  5.09424345143E-06
  5.16090095129E-06  5.22843065570E-06  5.29684397733E-06  5.36615247819E-06
  5.43636787160E-06  5.50750202412E-06  5.57956695759E-06  5.65257485116E-06
  5.72653804333E-06  5.80146903406E-06  5.87738048686E-06  5.95428523095E-06
  6.03219626342E-06  6.11112675142E-06  6.19109003438E-06  6.27209962629E-06
  6.35416921797E-06  6.43731267937E-06  6.52154406193E-06  6.60687760096E-06
  6.69332771803E-06  6.78090902342E-06  6.86963631857E-06  6.95952459861E-06
  7.05058905487E-06  7.14284507746E-06  7.23630825787E-06  7.33099439160E-06
  7.42691948083E-06  7.52409973713E-06  7.62255158419E-06  7.72229166061E-06
  7.82333682270E-06  7.92570414734E-06  8.02941093484E-06  8.13447471190E-06
  8.24091323455E-06  8.34874449115E-06  8.45798670543E-06  8.56865833960E-06
  8.68077809743E-06  8.79436492741E-06  8.90943802600E-06  9.02601684082E-06
  9.14412107397E-06  9.26377068535E-06  9.38498589602E-06  9.50778719164E-06
  9.63219532593E-06  9.75823132415E-06  9.88591648670E-06  1.00152723927E-05
  1.01463209035E-05  1.02790841667E-05  1.04135846196E-05  1.05498449931E-05
  1.06878883155E-05  1.08277379165E-05  1.09694174309E-05  1.11129508030E-05
  1.12583622902E-05  1.14056764675E-05  1.15549182312E-05  1.17061128036E-05
  1.18592857370E-05  1.20144629178E-05  1.21716705715E-05  1.23309352665E-05
  1.24922839188E-05  1.26557437969E-05  1.28213425259E-05  1.29891080922E-05
  1.31590688487E-05  1.33312535192E-05  1.35056912032E-05  1.36824113812E-05
  1.38614439193E-05  1.40428190744E-05  1.42265674993E-05  1.44127202480E-05
  1.46013087808E-05  1.47923649695E-05  1.49859211030E-05  1.51820098929E-05
  1.53806644786E-05  1.55819184332E-05  1.57858057691E-05  1.59923609438E-05
  1.62016188655E-05  1.64136148994E-05  1.66283848732E-05  1.68459650837E-05
  1.70663923024E-05  1.72897037820E-05  1.75159372626E-05  1.77451309784E-05
  1.79773236635E-05  1.82125545592E-05  1.84508634199E-05  1.86922905204E-05
  1.89368766625E-05  1.91846631818E-05  1.94356919549E-05  1.96900054062E-05
  1.99476465152E-05  2.02086588240E-05  2.04730864443E-05  2.07409740648E-05
  2.10123669594E-05  2.12873109940E-05  2.15658526348E-05  2.18480389560E-05
  2.21339176478E-05  2.24235370244E-05  2.27169460321E-05  2.30141942577E-05
  2.33153319370E-05  2.36204099628E-05  2.39294798942E-05  2.42425939646E-05
  2.45598050911E-05  2.48811668831E-05  2.52067336515E-05  2.55365604179E-05
  2.58707029238E-05  2.62092176400E-05  2.65521617765E-05  2.68995932914E-05
  2.72515709017E-05  2.76081540923E-05  2.79694031266E-05  2.83353790567E-05
  2.87061437332E-05  2.90817598164E-05  2.94622907862E-05  2.98478009532E-05
  3.02383554697E-05  3.06340203402E-05  3.10348624330E-05  3.14409494915E-05
  3.18523501452E-05  3.22691339220E-05  3.26913712592E-05  3.31191335159E-05
  3.35524929850E-05  3.39915229053E-05  3.44362974739E-05  3.48868918587E-05
  3.53433822113E-05  3.58058456796E-05  3.62743604210E-05  3.67490056157E-05
  3.72298614798E-05  3.77170092790E-05  3.82105313427E-05  3.87105110770E-05
  3.92170329799E-05  3.97301826547E-05  4.02500468249E-05  4.07767133488E-05
  4.13102712344E-05  4.18508106541E-05  4.23984229604E-05  4.29532007011E-05
  4.35152376349E-05  4.40846287475E-05  4.46614702673E-05  4.52458596818E-05
  4.58378957543E-05  4.64376785403E-05  4.70453094045E-05  4.76608910380E-05
  4.82845274755E-05  4.89163241130E-05  4.95563877258E-05  5.02048264860E-05
  5.08617499814E-05  5.15272692336E-05  5.22014967169E-05  5.28845463775E-05
  5.35765336522E-05  5.42775754886E-05  5.49877903645E-05  5.57072983078E-05
  5.64362209172E-05  5.71746813822E-05  5.79228045044E-05  5.86807167184E-05
  5.94485461133E-05  6.02264224539E-05  6.10144772033E-05  6.18128435445E-05
  6.26216564034E-05  6.34410524713E-05  6.42711702280E-05  6.51121499655E-05
  6.59641338113E-05  6.68272657528E-05  6.77016916612E-05  6.85875593166E-05
  6.94850184328E-05  7.03942206825E-05  7.13153197230E-05  7.22484712223E-05
  7.31938328852E-05  7.41515644800E-05  7.51218278658E-05  7.61047870192E-05
  7.71006080628E-05  7.81094592927E-05  7.91315112071E-05  8.01669365352E-05
  8.12159102664E-05  8.22786096798E-05  8.33552143740E-05  8.44459062978E-05