<PP_INFO>
Generated using ld1 code (maybe, or maybe not)                                  
Author: unknown    Generation date: as well                                     
Info: automatically converted from PWSCF format                                 
    0        The Pseudo was generated with a Non-Relativistic Calculation
nl pn  l   occ               Rcut            Rcut US             E pseu
*S  0  0  1.00      0.00000000000      0.00000000000      0.00000000000
</PP_INFO>


<PP_HEADER>
   0                   Version Number
  Na                   Element
   NC                  Norm - Conserving pseudopotential
    F                  Nonlinear Core Correction
SLA  PW   PBE  PBE     PBE  Exchange-Correlation functional
    1.00000000000      Z valence
    0.00000000000      Total energy
  0.0000000  0.0000000 Suggested cutoff for wfc and rho
   -1                  Max angular momentum component
 1138                  Number of points in mesh
    1    0             Number of Wavefunctions, Number of Projectors
 Wavefunctions         nl  l   occ
                       *S  0  1.00
</PP_HEADER>


<PP_MESH>
  <PP_R>
  4.49644098742E-05  4.55527632133E-05  4.61488150778E-05  4.67526662019E-05
  4.73644186379E-05  4.79841757734E-05  4.86120423487E-05  4.92481244749E-05
  4.98925296514E-05  5.05453667842E-05  5.12067462042E-05  5.18767796862E-05
  5.25555804674E-05  5.32432632669E-05  5.39399443045E-05  5.46457413211E-05
  5.53607735981E-05  5.60851619776E-05  5.68190288829E-05  5.75624983393E-05
  5.83156959950E-05  5.90787491421E-05  5.98517867384E-05  6.06349394291E-05
  6.14283395689E-05  6.22321212443E-05  6.30464202963E-05  6.38713743434E-05
  6.47071228048E-05  6.55538069239E-05  6.64115697925E-05  6.72805563743E-05
  6.81609135304E-05  6.90527900431E-05  6.99563366416E-05  7.08717060275E-05
  7.17990529005E-05  7.27385339842E-05  7.36903080534E-05  7.46545359599E-05
  7.56313806608E-05  7.66210072450E-05  7.76235829617E-05  7.86392772488E-05
  7.96682617609E-05  8.07107103988E-05  8.17667993389E-05  8.28367070627E-05
  8.39206143871E-05  8.50187044951E-05  8.61311629665E-05  8.72581778095E-05
  8.83999394922E-05  8.95566409751E-05  9.07284777434E-05  9.19156478404E-05
  9.31183519007E-05  9.43367931841E-05  9.55711776101E-05  9.68217137925E-05
  9.80886130750E-05  9.93720895666E-05  1.00672360178E-04  1.01989644658E-04
  1.03324165630E-04  1.04676148632E-04  1.06045822153E-04  1.07433417670E-04
  1.08839169690E-04  1.10263315789E-04  1.11706096651E-04  1.13167756109E-04
  1.14648541187E-04  1.16148702141E-04  1.17668492503E-04  1.19208169120E-04
  1.20767992201E-04  1.22348225360E-04  1.23949135661E-04  1.25570993660E-04
  1.27214073456E-04  1.28878652734E-04  1.30565012810E-04  1.32273438685E-04
  1.34004219085E-04  1.35757646518E-04  1.37534017315E-04  1.39333631689E-04
  1.41156793779E-04  1.43003811702E-04  1.44874997610E-04  1.46770667738E-04
  1.48691142458E-04  1.50636746334E-04  1.52607808180E-04  1.54604661108E-04
  1.56627642591E-04  1.58677094520E-04  1.60753363254E-04  1.62856799690E-04
  1.64987759313E-04  1.67146602259E-04  1.69333693380E-04  1.71549402297E-04
  1.73794103472E-04  1.76068176264E-04  1.78372004996E-04  1.80705979022E-04
  1.83070492789E-04  1.85465945905E-04  1.87892743207E-04  1.90351294829E-04
  1.92842016274E-04  1.95365328478E-04  1.97921657888E-04  2.00511436529E-04
  2.03135102080E-04  2.05793097947E-04  2.08485873337E-04  2.11213883336E-04
  2.13977588984E-04  2.16777457354E-04  2.19613961630E-04  2.22487581189E-04
  2.25398801678E-04  2.28348115101E-04  2.31336019899E-04  2.34363021035E-04
  2.37429630079E-04  2.40536365296E-04  2.43683751731E-04  2.46872321300E-04
  2.50102612879E-04  2.53375172395E-04  2.56690552918E-04  2.60049314755E-04
  2.63452025546E-04  2.66899260356E-04  2.70391601776E-04  2.73929640020E-04
  2.77513973026E-04  2.81145206554E-04  2.84823954290E-04  2.88550837953E-04
  2.92326487394E-04  2.96151540707E-04  3.00026644336E-04  3.03952453182E-04
  3.07929630715E-04  3.11958849089E-04  3.16040789251E-04  3.20176141059E-04
  3.24365603396E-04  3.28609884293E-04  3.32909701042E-04  3.37265780323E-04
  3.41678858324E-04  3.46149680864E-04  3.50679003525E-04  3.55267591772E-04
  3.59916221088E-04  3.64625677101E-04  3.69396755722E-04  3.74230263274E-04
  3.79127016631E-04  3.84087843356E-04  3.89113581841E-04  3.94205081447E-04
  3.99363202650E-04  4.04588817185E-04  4.09882808194E-04  4.15246070372E-04
  4.20679510124E-04  4.26184045715E-04  4.31760607424E-04  4.37410137704E-04
  4.43133591337E-04  4.48931935603E-04  4.54806150434E-04  4.60757228587E-04
  4.66786175808E-04  4.72894011003E-04  4.79081766413E-04  4.85350487781E-04
  4.91701234536E-04  4.98135079971E-04  5.04653111420E-04  5.11256430445E-04
  5.17946153024E-04  5.24723409736E-04  5.31589345953E-04  5.38545122035E-04
  5.45591913524E-04  5.52730911345E-04  5.59963322006E-04  5.67290367801E-04
  5.74713287018E-04  5.82233334148E-04  5.89851780098E-04  5.97569912403E-04
  6.05389035445E-04  6.13310470674E-04  6.21335556834E-04  6.29465650181E-04
  6.37702124721E-04  6.46046372438E-04  6.54499803530E-04  6.63063846646E-04
  6.71739949130E-04  6.80529577265E-04  6.89434216518E-04  6.98455371794E-04
  7.07594567691E-04  7.16853348754E-04  7.26233279739E-04  7.35735945876E-04
  7.45362953140E-04  7.55115928517E-04  7.64996520283E-04  7.75006398281E-04
  7.85147254206E-04  7.95420801885E-04  8.05828777573E-04  8.16372940242E-04
  8.27055071881E-04  8.37876977796E-04  8.48840486914E-04  8.59947452095E-04
  8.71199750442E-04  8.82599283621E-04  8.94147978179E-04  9.05847785873E-04
  9.17700684000E-04  9.29708675726E-04  9.41873790431E-04  9.54198084048E-04
  9.66683639413E-04  9.79332566614E-04  9.92147003349E-04  1.00512911529E-03
  1.01828109644E-03  1.03160516952E-03  1.04510358634E-03  1.05877862814E-03
  1.07263260605E-03  1.08666786143E-03  1.10088676626E-03  1.11529172357E-03
  1.12988516784E-03  1.14466956540E-03  1.15964741483E-03  1.17482124744E-03
  1.19019362763E-03  1.20576715338E-03  1.22154445665E-03  1.23752820384E-03
  1.25372109624E-03  1.27012587049E-03  1.28674529904E-03  1.30358219060E-03
  1.32063939066E-03  1.33791978192E-03  1.35542628480E-03  1.37316185795E-03
  1.39112949873E-03  1.40933224370E-03  1.42777316917E-03  1.44645539171E-03
  1.46538206865E-03  1.48455639865E-03  1.50398162222E-03  1.52366102226E-03
  1.54359792463E-03  1.56379569874E-03  1.58425775803E-03  1.60498756066E-03
  1.62598861000E-03  1.64726445529E-03  1.66881869220E-03  1.69065496343E-03
  1.71277695938E-03  1.73518841871E-03  1.75789312902E-03  1.78089492744E-03
  1.80419770135E-03  1.82780538896E-03  1.85172198004E-03  1.87595151653E-03
  1.90049809330E-03  1.92536585877E-03  1.95055901565E-03  1.97608182165E-03
  2.00193859017E-03  2.02813369109E-03  2.05467155142E-03  2.08155665614E-03
  2.10879354889E-03  2.13638683277E-03  2.16434117110E-03  2.19266128825E-03
  2.22135197037E-03  2.25041806626E-03  2.27986448816E-03  2.30969621259E-03
  2.33991828117E-03  2.37053580151E-03  2.40155394805E-03  2.43297796292E-03
  2.46481315685E-03  2.49706491007E-03  2.52973867321E-03  2.56283996821E-03
  2.59637438925E-03  2.63034760375E-03  2.66476535326E-03  2.69963345445E-03
  2.73495780012E-03  2.77074436017E-03  2.80699918261E-03  2.84372839460E-03
  2.88093820345E-03  2.91863489771E-03  2.95682484822E-03  2.99551450916E-03
  3.03471041919E-03  3.07441920250E-03  3.11464756998E-03  3.15540232030E-03
  3.19669034113E-03  3.23851861023E-03  3.28089419669E-03  3.32382426208E-03
  3.36731606167E-03  3.41137694570E-03  3.45601436055E-03  3.50123585005E-03
  3.54704905674E-03  3.59346172317E-03  3.64048169318E-03  3.68811691326E-03
  3.73637543388E-03  3.78526541083E-03  3.83479510666E-03  3.88497289198E-03
  3.93580724697E-03  3.98730676275E-03  4.03948014286E-03  4.09233620473E-03
  4.14588388116E-03  4.20013222184E-03  4.25509039485E-03  4.31076768827E-03
  4.36717351169E-03  4.42431739783E-03  4.48220900414E-03  4.54085811444E-03
  4.60027464057E-03  4.66046862406E-03  4.72145023784E-03  4.78322978795E-03
  4.84581771527E-03  4.90922459733E-03  4.97346115002E-03  5.03853822949E-03
  5.10446683391E-03  5.17125810537E-03  5.23892333177E-03  5.30747394867E-03
  5.37692154130E-03  5.44727784648E-03  5.51855475457E-03  5.59076431155E-03
  5.66391872101E-03  5.73803034621E-03  5.81311171219E-03  5.88917550790E-03
  5.96623458828E-03  6.04430197650E-03  6.12339086615E-03  6.20351462342E-03
  6.28468678943E-03  6.36692108247E-03  6.45023140033E-03  6.53463182264E-03
  6.62013661328E-03  6.70676022277E-03  6.79451729070E-03  6.88342264822E-03
  6.97349132056E-03  7.06473852952E-03  7.15717969611E-03  7.25083044311E-03
  7.34570659770E-03  7.44182419420E-03  7.53919947669E-03  7.63784890185E-03
  7.73778914164E-03  7.83903708622E-03  7.94160984672E-03  8.04552475819E-03
  8.15079938249E-03  8.25745151128E-03  8.36549916904E-03  8.47496061607E-03
  8.58585435161E-03  8.69819911697E-03  8.81201389868E-03  8.92731793172E-03
  9.04413070273E-03  9.16247195336E-03  9.28236168356E-03  9.40382015498E-03
  9.52686789438E-03  9.65152569713E-03  9.77781463070E-03  9.90575603821E-03
  1.00353715421E-02  1.01666830476E-02  1.02997127468E-02  1.04344831219E-02
  1.05710169495E-02  1.07093373042E-02  1.08494675623E-02  1.09914314063E-02
  1.11352528283E-02  1.12809561346E-02  1.14285659493E-02  1.15781072189E-02
  1.17296052161E-02  1.18830855445E-02  1.20385741427E-02  1.21960972886E-02
  1.23556816039E-02  1.25173540588E-02  1.26811419764E-02  1.28470730371E-02
  1.30151752838E-02  1.31854771260E-02  1.33580073453E-02  1.35327950996E-02
  1.37098699285E-02  1.38892617580E-02  1.40710009059E-02  1.42551180863E-02
  1.44416444157E-02  1.46306114173E-02  1.48220510271E-02  1.50159955988E-02
  1.52124779095E-02  1.54115311651E-02  1.56131890063E-02  1.58174855135E-02
  1.60244552134E-02  1.62341330844E-02  1.64465545625E-02  1.66617555474E-02
  1.68797724088E-02  1.71006419918E-02  1.73244016240E-02  1.75510891214E-02
  1.77807427945E-02  1.80134014556E-02  1.82491044243E-02  1.84878915351E-02
  1.87298031436E-02  1.89748801334E-02  1.92231639232E-02  1.94746964733E-02
  1.97295202936E-02  1.99876784497E-02  2.02492145710E-02  2.05141728578E-02
  2.07825980887E-02  2.10545356280E-02  2.13300314341E-02  2.16091320662E-02
  2.18918846930E-02  2.21783371005E-02  2.24685376997E-02  2.27625355353E-02
  2.30603802935E-02  2.33621223109E-02  2.36678125826E-02  2.39775027709E-02
  2.42912452143E-02  2.46090929359E-02  2.49310996529E-02  2.52573197849E-02
  2.55878084642E-02  2.59226215440E-02  2.62618156085E-02  2.66054479824E-02
  2.69535767403E-02  2.73062607168E-02  2.76635595164E-02  2.80255335233E-02
  2.83922439122E-02  2.87637526578E-02  2.91401225461E-02  2.95214171845E-02
  2.99077010126E-02  3.02990393134E-02  3.06954982239E-02  3.10971447467E-02
  3.15040467610E-02  3.19162730342E-02  3.23338932334E-02  3.27569779376E-02
  3.31855986491E-02  3.36198278056E-02  3.40597387931E-02  3.45054059576E-02
  3.49569046177E-02  3.54143110779E-02  3.58777026410E-02  3.63471576213E-02
  3.68227553576E-02  3.73045762273E-02  3.77927016592E-02  3.82872141475E-02
  3.87881972662E-02  3.92957356826E-02  3.98099151718E-02  4.03308226314E-02
  4.08585460961E-02  4.13931747523E-02  4.19347989535E-02  4.24835102356E-02
  4.30394013320E-02  4.36025661897E-02  4.41730999848E-02  4.47510991390E-02
  4.53366613354E-02  4.59298855355E-02  4.65308719956E-02  4.71397222838E-02
  4.77565392973E-02  4.83814272795E-02  4.90144918382E-02  4.96558399626E-02
  5.03055800421E-02  5.09638218844E-02  5.16306767339E-02  5.23062572907E-02
  5.29906777294E-02  5.36840537188E-02  5.43865024411E-02  5.50981426117E-02
  5.58190944995E-02  5.65494799472E-02  5.72894223916E-02  5.80390468847E-02
  5.87984801149E-02  5.95678504281E-02  6.03472878499E-02  6.11369241069E-02
  6.19368926496E-02  6.27473286746E-02  6.35683691475E-02  6.44001528261E-02
  6.52428202838E-02  6.60965139334E-02  6.69613780512E-02  6.78375588012E-02
  6.87252042601E-02  6.96244644421E-02  7.05354913243E-02  7.14584388725E-02
  7.23934630669E-02  7.33407219288E-02  7.43003755473E-02  7.52725861062E-02
  7.62575179112E-02  7.72553374182E-02  7.82662132612E-02  7.92903162805E-02
  8.03278195519E-02  8.13788984161E-02  8.24437305077E-02  8.35224957861E-02
  8.46153765650E-02  8.57225575439E-02  8.68442258391E-02  8.79805710152E-02
  8.91317851172E-02  9.02980627030E-02  9.14796008763E-02  9.26765993199E-02
  9.38892603294E-02  9.51177888473E-02  9.63623924979E-02  9.76232816222E-02
  9.89006693135E-02  1.00194771453E-01  1.01505806748E-01  1.02833996765E-01
  1.04179565973E-01  1.05542741776E-01  1.06923754552E-01  1.08322837698E-01
  1.09740227662E-01  1.11176163985E-01  1.12630889344E-01  1.14104649592E-01
  1.15597693797E-01  1.17110274287E-01  1.18642646693E-01  1.20195069988E-01
  1.21767806536E-01  1.23361122133E-01  1.24975286054E-01  1.26610571095E-01
  1.28267253624E-01  1.29945613624E-01  1.31645934743E-01  1.33368504337E-01
  1.35113613526E-01  1.36881557238E-01  1.38672634258E-01  1.40487147284E-01
  1.42325402972E-01  1.44187711992E-01  1.46074389078E-01  1.47985753084E-01
  1.49922127034E-01  1.51883838181E-01  1.53871218057E-01  1.55884602536E-01
  1.57924331884E-01  1.59990750819E-01  1.62084208573E-01  1.64205058943E-01
  1.66353660359E-01  1.68530375940E-01  1.70735573555E-01  1.72969625888E-01
  1.75232910500E-01  1.77525809891E-01  1.79848711567E-01  1.82202008102E-01
  1.84586097211E-01  1.87001381810E-01  1.89448270087E-01  1.91927175572E-01
  1.94438517207E-01  1.96982719415E-01  1.99560212170E-01  2.02171431077E-01
  2.04816817437E-01  2.07496818326E-01  2.10211886671E-01  2.12962481326E-01
  2.15749067147E-01  2.18572115073E-01  2.21432102207E-01  2.24329511894E-01
  2.27264833802E-01  2.30238564008E-01  2.33251205079E-01  2.36303266159E-01
  2.39395263053E-01  2.42527718317E-01  2.45701161342E-01  2.48916128449E-01
  2.52173162973E-01  2.55472815362E-01  2.58815643265E-01  2.62202211628E-01
  2.65633092789E-01  2.69108866574E-01  2.72630120399E-01  2.76197449362E-01
  2.79811456352E-01  2.83472752145E-01  2.87181955506E-01  2.90939693302E-01
  2.94746600599E-01  2.98603320773E-01  3.02510505618E-01  3.06468815459E-01
  3.10478919259E-01  3.14541494736E-01  3.18657228474E-01  3.22826816041E-01
  3.27050962109E-01  3.31330380569E-01  3.35665794651E-01  3.40057937051E-01
  3.44507550052E-01  3.49015385649E-01  3.53582205676E-01  3.58208781938E-01
  3.62895896337E-01  3.67644341006E-01  3.72454918444E-01  3.77328441649E-01
  3.82265734259E-01  3.87267630688E-01  3.92334976269E-01  3.97468627394E-01
  4.02669451663E-01  4.07938328028E-01  4.13276146941E-01  4.18683810507E-01
  4.24162232633E-01  4.29712339186E-01  4.35335068147E-01  4.41031369771E-01
  4.46802206746E-01  4.52648554357E-01  4.58571400651E-01  4.64571746604E-01
  4.70650606287E-01  4.76809007043E-01  4.83047989656E-01  4.89368608530E-01
  4.95771931862E-01  5.02259041831E-01  5.08831034774E-01  5.15489021373E-01
  5.22234126843E-01  5.29067491123E-01  5.35990269069E-01  5.43003630646E-01
  5.50108761129E-01  5.57306861302E-01  5.64599147660E-01  5.71986852619E-01
  5.79471224717E-01  5.87053528831E-01  5.94735046389E-01  6.02517075585E-01
  6.10400931601E-01  6.18387946828E-01  6.26479471089E-01  6.34676871872E-01
  6.42981534557E-01  6.51394862651E-01  6.59918278028E-01  6.68553221164E-01
  6.77301151386E-01  6.86163547114E-01  6.95141906116E-01  7.04237745753E-01
  7.13452603246E-01  7.22788035927E-01  7.32245621507E-01  7.41826958339E-01
  7.51533665693E-01  7.61367384025E-01  7.71329775257E-01  7.81422523057E-01
  7.91647333123E-01  8.02005933472E-01  8.12500074734E-01  8.23131530441E-01
  8.33902097337E-01  8.44813595672E-01  8.55867869515E-01  8.67066787065E-01
  8.78412240966E-01  8.89906148626E-01  9.01550452543E-01  9.13347120633E-01
  9.25298146560E-01  9.37405550076E-01  9.49671377361E-01  9.62097701369E-01
  9.74686622179E-01  9.87440267348E-01  1.00036079227E+00  1.01345038055E+00
  1.02671124436E+00  1.04014562480E+00  1.05375579234E+00  1.06754404711E+00
  1.08151271937E+00  1.09566416985E+00  1.11000079018E+00  1.12452500329E+00
  1.13923926380E+00  1.15414605846E+00  1.16924790655E+00  1.18454736032E+00
  1.20004700541E+00  1.21574946130E+00  1.23165738175E+00  1.24777345522E+00
  1.26410040537E+00  1.28064099151E+00  1.29739800902E+00  1.31437428988E+00
  1.33157270312E+00  1.34899615532E+00  1.36664759108E+00  1.38452999354E+00
  1.40264638486E+00  1.42099982676E+00  1.43959342101E+00  1.45843030998E+00
  1.47751367714E+00  1.49684674763E+00  1.51643278878E+00  1.53627511068E+00
  1.55637706673E+00  1.57674205421E+00  1.59737351485E+00  1.61827493541E+00
  1.63944984830E+00  1.66090183210E+00  1.68263451228E+00  1.70465156168E+00
  1.72695670126E+00  1.74955370064E+00  1.77244637875E+00  1.79563860451E+00
  1.81913429748E+00  1.84293742847E+00  1.86705202028E+00  1.89148214832E+00
  1.91623194134E+00  1.94130558212E+00  1.96670730817E+00  1.99244141243E+00
  2.01851224404E+00  2.04492420902E+00  2.07168177105E+00  2.09878945224E+00
  2.12625183384E+00  2.15407355705E+00  2.18225932383E+00  2.21081389763E+00
  2.23974210424E+00  2.26904883259E+00  2.29873903560E+00  2.32881773097E+00
  2.35929000209E+00  2.39016099883E+00  2.42143593847E+00  2.45312010654E+00
  2.48521885775E+00  2.51773761687E+00  2.55068187963E+00  2.58405721370E+00
  2.61786925960E+00  2.65212373162E+00  2.68682641887E+00  2.72198318618E+00
  2.75759997513E+00  2.79368280504E+00  2.83023777398E+00  2.86727105985E+00
  2.90478892136E+00  2.94279769910E+00  2.98130381666E+00  3.02031378166E+00
  3.05983418688E+00  3.09987171136E+00  3.14043312153E+00  3.18152527238E+00
  3.22315510857E+00  3.26532966565E+00  3.30805607121E+00  3.35134154612E+00
  3.39519340573E+00  3.43961906110E+00  3.48462602028E+00  3.53022188956E+00
  3.57641437473E+00  3.62321128245E+00  3.67062052150E+00  3.71865010415E+00
  3.76730814752E+00  3.81660287494E+00  3.86654261732E+00  3.91713581461E+00
  3.96839101717E+00  4.02031688726E+00  4.07292220048E+00  4.12621584724E+00
  4.18020683430E+00  4.23490428626E+00  4.29031744713E+00  4.34645568185E+00
  4.40332847794E+00  4.46094544701E+00  4.51931632649E+00  4.57845098117E+00
  4.63835940498E+00  4.69905172256E+00  4.76053819106E+00  4.82282920186E+00
  4.88593528226E+00  4.94986709736E+00  5.01463545178E+00  5.08025129152E+00
  5.14672570582E+00  5.21406992902E+00  5.28229534245E+00  5.35141347636E+00
  5.42143601189E+00  5.49237478300E+00  5.56424177853E+00  5.63704914416E+00
  5.71080918451E+00  5.78553436520E+00  5.86123731498E+00  5.93793082781E+00
  6.01562786508E+00  6.09434155778E+00  6.17408520871E+00  6.25487229474E+00
  6.33671646907E+00  6.41963156356E+00  6.50363159107E+00  6.58873074780E+00
  6.67494341570E+00  6.76228416493E+00  6.85076775628E+00  6.94040914368E+00
  7.03122347675E+00  7.12322610332E+00  7.21643257205E+00  7.31085863507E+00
  7.40652025060E+00  7.50343358567E+00  7.60161501888E+00  7.70108114313E+00
  7.80184876841E+00  7.90393492471E+00  8.00735686482E+00  8.11213206730E+00
  8.21827823940E+00  8.32581332009E+00  8.43475548305E+00  8.54512313976E+00
  8.65693494261E+00  8.77020978808E+00  8.88496681987E+00  9.00122543221E+00
  9.11900527306E+00  9.23832624752E+00  9.35920852109E+00  9.48167252318E+00
  9.60573895050E+00  9.73142877056E+00  9.85876322524E+00  9.98776383438E+00
  1.01184523994E+01  1.02508510069E+01  1.03849820327E+01  1.05208681451E+01
  1.06585323093E+01  1.07979977908E+01  1.09392881596E+01  1.10824272942E+01
  1.12274393854E+01  1.13743489405E+01  1.15231807877E+01  1.16739600799E+01
  1.18267122991E+01  1.19814632608E+01  1.21382391184E+01  1.22970663672E+01
  1.24579718496E+01  1.26209827588E+01  1.27861266441E+01  1.29534314153E+01
  1.31229253472E+01  1.32946370848E+01  1.34685956476E+01  1.36448304352E+01
  1.38233712316E+01  1.40042482106E+01  1.41874919409E+01  1.43731333912E+01
  1.45612039351E+01  1.47517353572E+01  1.49447598577E+01  1.51403100581E+01
  1.53384190070E+01  1.55391201853E+01  1.57424475118E+01  1.59484353494E+01
  1.61571185105E+01  1.63685322632E+01  1.65827123367E+01  1.67996949281E+01
  1.70195167079E+01  1.72422148266E+01  1.74678269205E+01  1.76963911189E+01
  1.79279460494E+01  1.81625308455E+01  1.84001851525E+01  1.86409491346E+01
  1.88848634815E+01  1.91319694153E+01  1.93823086974E+01  1.96359236359E+01
  1.98928570921E+01  2.01531524886E+01  2.04168538158E+01  2.06840056399E+01
  2.09546531101E+01  2.12288419666E+01  2.15066185480E+01  2.17880297990E+01
  2.20731232790E+01  2.23619471693E+01  2.26545502819E+01  2.29509820675E+01
  2.32512926236E+01  2.35555327035E+01  2.38637537245E+01  2.41760077767E+01
  2.44923476318E+01  2.48128267519E+01  2.51374992987E+01  2.54664201428E+01
  2.57996448725E+01  2.61372298036E+01  2.64792319887E+01  2.68257092271E+01
  2.71767200742E+01  2.75323238516E+01  2.78925806573E+01  2.82575513755E+01
  2.86272976872E+01  2.90018820803E+01  2.93813678605E+01  2.97658191618E+01
  3.01553009574E+01  3.05498790706E+01  3.09496201861E+01  3.13545918611E+01
  3.17648625367E+01  3.21805015497E+01  3.26015791441E+01  3.30281664829E+01
  3.34603356605E+01  3.38981597144E+01  3.43417126380E+01  3.47910693928E+01
  3.52463059211E+01  3.57074991590E+01  3.61747270492E+01  3.66480685544E+01
  3.71276036705E+01  3.76134134399E+01  3.81055799657E+01  3.86041864252E+01
  3.91093170841E+01  3.96210573107E+01  4.01394935903E+01  4.06647135398E+01
  4.11968059227E+01  4.17358606638E+01  4.22819688648E+01  4.28352228191E+01
  4.33957160280E+01  4.39635432162E+01  4.45388003478E+01  4.51215846428E+01
  4.57119945929E+01  4.63101299789E+01  4.69160918871E+01  4.75299827264E+01
  4.81519062460E+01  4.87819675524E+01  4.94202731274E+01  5.00669308461E+01
  5.07220499954E+01  5.13857412918E+01  5.20581169007E+01  5.27392904554E+01
  5.34293770757E+01  5.41284933878E+01  5.48367575442E+01  5.55542892431E+01
  5.62812097491E+01  5.70176419135E+01  5.77637101951E+01  5.85195406812E+01
  5.92852611090E+01  6.00610008870E+01  6.08468911171E+01  6.16430646166E+01
  6.24496559408E+01  6.32668014054E+01  6.40946391101E+01  6.49333089613E+01
  6.57829526963E+01  6.66437139069E+01  6.75157380637E+01  6.83991725410E+01
  6.92941666412E+01  7.02008716205E+01  7.11194407142E+01  7.20500291627E+01
  7.29927942375E+01  7.39478952684E+01  7.49154936695E+01  7.58957529674E+01
  7.68888388281E+01  7.78949190856E+01  7.89141637699E+01  7.99467451356E+01
  8.09928376915E+01  8.20526182298E+01  8.31262658559E+01  8.42139620187E+01
  8.53158905416E+01  8.64322376530E+01  8.75631920183E+01  8.87089447715E+01
  8.98696895474E+01  9.10456225148E+01  9.22369424091E+01  9.34438505662E+01
  9.46665509565E+01  9.59052502192E+01  9.71601576974E+01  9.84314854735E+01
  9.97194484050E+01  1.01024264161E+02  1.02346153257E+02  1.03685339097E+02
  1.05042048007E+02  1.06416509272E+02  1.07808955181E+02  1.09219621059E+02
  1.10648745314E+02  1.12096569470E+02  1.13563338213E+02  1.15049299430E+02
  1.16554704253E+02  1.18079807099E+02
  </PP_R>
  <PP_RAB>
  5.84537328365E-07  5.92185921773E-07  5.99934596012E-07  6.07784660625E-07
  6.15737442293E-07  6.23794285054E-07  6.31956550533E-07  6.40225618174E-07
  6.48602885468E-07  6.57089768194E-07  6.65687700654E-07  6.74398135920E-07
  6.83222546077E-07  6.92162422469E-07  7.01219275959E-07  7.10394637175E-07
  7.19690056775E-07  7.29107105708E-07  7.38647375478E-07  7.48312478411E-07
  7.58104047935E-07  7.68023738847E-07  7.78073227599E-07  7.88254212579E-07
  7.98568414396E-07  8.09017576176E-07  8.19603463852E-07  8.30327866464E-07
  8.41192596462E-07  8.52199490011E-07  8.63350407302E-07  8.74647232866E-07
  8.86091875895E-07  8.97686270560E-07  9.09432376341E-07  9.21332178358E-07
  9.33387687706E-07  9.45600941795E-07  9.57974004694E-07  9.70508967479E-07
  9.83207948590E-07  9.96073094185E-07  1.00910657850E-06  1.02231060423E-06
  1.03568740289E-06  1.04923923518E-06  1.06296839141E-06  1.07687719181E-06
  1.09096798703E-06  1.10524315844E-06  1.11970511856E-06  1.13435631152E-06
  1.14919921340E-06  1.16423633268E-06  1.17947021066E-06  1.19490342193E-06
  1.21053857471E-06  1.22637831139E-06  1.24242530893E-06  1.25868227930E-06
  1.27515196998E-06  1.29183716437E-06  1.30874068231E-06  1.32586538055E-06
  1.34321415319E-06  1.36078993222E-06  1.37859568799E-06  1.39663442971E-06
  1.41490920597E-06  1.43342310526E-06  1.45217925646E-06  1.47118082941E-06
  1.49043103543E-06  1.50993312784E-06  1.52969040254E-06  1.54970619856E-06
  1.56998389861E-06  1.59052692968E-06  1.61133876359E-06  1.63242291758E-06
  1.65378295493E-06  1.67542248554E-06  1.69734516653E-06  1.71955470290E-06
  1.74205484811E-06  1.76484940473E-06  1.78794222510E-06  1.81133721196E-06
  1.83503831912E-06  1.85904955213E-06  1.88337496894E-06  1.90801868059E-06
  1.93298485195E-06  1.95827770234E-06  1.98390150633E-06  2.00986059440E-06
  2.03615935369E-06  2.06280222875E-06  2.08979372231E-06  2.11713839597E-06
  2.14484087107E-06  2.17290582937E-06  2.20133801394E-06  2.23014222986E-06
  2.25932334513E-06  2.28888629143E-06  2.31883606495E-06  2.34917772729E-06
  2.37991640626E-06  2.41105729676E-06  2.44260566169E-06  2.47456683278E-06
  2.50694621156E-06  2.53974927022E-06  2.57298155255E-06  2.60664867488E-06
  2.64075632704E-06  2.67531027331E-06  2.71031635339E-06  2.74578048337E-06
  2.78170865680E-06  2.81810694561E-06  2.85498150119E-06  2.89233855545E-06
  2.93018442181E-06  2.96852549631E-06  3.00736825868E-06  3.04671927345E-06
  3.08658519102E-06  3.12697274884E-06  3.16788877250E-06  3.20934017690E-06
  3.25133396743E-06  3.29387724113E-06  3.33697718793E-06  3.38064109182E-06
  3.42487633210E-06  3.46969038463E-06  3.51509082309E-06  3.56108532027E-06
  3.60768164934E-06  3.65488768520E-06  3.70271140577E-06  3.75116089339E-06
  3.80024433612E-06  3.84997002920E-06  3.90034637637E-06  3.95138189136E-06
  4.00308519930E-06  4.05546503816E-06  4.10853026027E-06  4.16228983377E-06
  4.21675284415E-06  4.27192849581E-06  4.32782611355E-06  4.38445514420E-06
  4.44182515821E-06  4.49994585124E-06  4.55882704583E-06  4.61847869304E-06
  4.67891087414E-06  4.74013380232E-06  4.80215782439E-06  4.86499342256E-06
  4.92865121620E-06  4.99314196363E-06  5.05847656393E-06  5.12466605881E-06
  5.19172163445E-06  5.25965462341E-06  5.32847650652E-06  5.39819891483E-06
  5.46883363162E-06  5.54039259430E-06  5.61288789652E-06  5.68633179015E-06
  5.76073668739E-06  5.83611516284E-06  5.91247995564E-06  5.98984397162E-06
  6.06822028550E-06  6.14762214305E-06  6.22806296337E-06  6.30955634115E-06
  6.39211604897E-06  6.47575603962E-06  6.56049044845E-06  6.64633359579E-06
  6.73329998932E-06  6.82140432657E-06  6.91066149739E-06  7.00108658645E-06
  7.09269487581E-06  7.18550184749E-06  7.27952318607E-06  7.37477478141E-06
  7.47127273123E-06  7.56903334393E-06  7.66807314127E-06  7.76840886123E-06
  7.87005746078E-06  7.97303611877E-06  8.07736223884E-06  8.18305345235E-06
  8.29012762137E-06  8.39860284169E-06  8.50849744588E-06  8.61983000640E-06
  8.73261933869E-06  8.84688450444E-06  8.96264481473E-06  9.07991983333E-06
  9.19872937998E-06  9.31909353380E-06  9.44103263660E-06  9.56456729639E-06
  9.68971839082E-06  9.81650707072E-06  9.94495476367E-06  1.00750831777E-05
  1.02069143047E-05  1.03404704245E-05  1.04757741084E-05  1.06128482231E-05
  1.07517159345E-05  1.08924007113E-05  1.10349263299E-05  1.11793168772E-05
  1.13255967558E-05  1.14737906871E-05  1.16239237163E-05  1.17760212164E-05
  1.19301088920E-05  1.20862127844E-05  1.22443592756E-05  1.24045750926E-05
  1.25668873124E-05  1.27313233660E-05  1.28979110435E-05  1.30666784988E-05
  1.32376542538E-05  1.34108672038E-05  1.35863466224E-05  1.37641221658E-05
  1.39442238787E-05  1.41266821986E-05  1.43115279614E-05  1.44987924065E-05
  1.46885071820E-05  1.48807043502E-05  1.50754163928E-05  1.52726762167E-05
  1.54725171592E-05  1.56749729940E-05  1.58800779365E-05  1.60878666499E-05
  1.62983742512E-05  1.65116363164E-05  1.67276888875E-05  1.69465684778E-05
  1.71683120786E-05  1.73929571649E-05  1.76205417024E-05  1.78511041534E-05
  1.80846834835E-05  1.83213191681E-05  1.85610511993E-05  1.88039200923E-05
  1.90499668925E-05  1.92992331825E-05  1.95517610888E-05  1.98075932893E-05
  2.00667730203E-05  2.03293440836E-05  2.05953508544E-05  2.08648382886E-05
  2.11378519301E-05  2.14144379188E-05  2.16946429986E-05  2.19785145246E-05
  2.22661004720E-05  2.25574494433E-05  2.28526106772E-05  2.31516340567E-05
  2.34545701175E-05  2.37614700565E-05  2.40723857405E-05  2.43873697149E-05
  2.47064752129E-05  2.50297561640E-05  2.53572672034E-05  2.56890636814E-05
  2.60252016723E-05  2.63657379842E-05  2.67107301685E-05  2.70602365299E-05
  2.74143161356E-05  2.77730288260E-05  2.81364352243E-05  2.85045967472E-05
  2.88775756148E-05  2.92554348614E-05  2.96382383461E-05  3.00260507637E-05
  3.04189376552E-05  3.08169654197E-05  3.12202013246E-05  3.16287135179E-05
  3.20425710391E-05  3.24618438310E-05  3.28866027517E-05  3.33169195867E-05
  3.37528670603E-05  3.41945188488E-05  3.46419495924E-05  3.50952349079E-05
  3.55544514016E-05  3.60196766822E-05  3.64909893740E-05  3.69684691298E-05
  3.74521966448E-05  3.79422536702E-05  3.84387230269E-05  3.89416886191E-05
  3.94512354495E-05  3.99674496325E-05  4.04904184097E-05  4.10202301639E-05
  4.15569744347E-05  4.21007419330E-05  4.26516245570E-05  4.32097154070E-05
  4.37751088017E-05  4.43479002941E-05  4.49281866871E-05  4.55160660506E-05
  4.61116377376E-05  4.67150024012E-05  4.73262620113E-05  4.79455198724E-05
  4.85728806404E-05  4.92084503408E-05  4.98523363865E-05  5.05046475957E-05
  5.11654942106E-05  5.18349879157E-05  5.25132418572E-05  5.32003706615E-05
  5.38964904551E-05  5.46017188839E-05  5.53161751331E-05  5.60399799476E-05
  5.67732556520E-05  5.75161261718E-05  5.82687170538E-05  5.90311554877E-05
  5.98035703274E-05  6.05860921127E-05  6.13788530919E-05  6.21819872433E-05