 
 ********************************************************* 
 *                                                       * 
 *          Start to Generate Orbital for LCAO           * 
 *                                                       * 
 ********************************************************* 
      InputFile = ORBITAL_INPUT_DZP
        EXE_mpi = /opt/hpcx/2.9.0/ompi-icc/2019.update5/bin/mpirun -np 8 
    Host1_NCore = 8
         EXE_pw = /gpfs/home/nic/wszhang/abacus/wszhang@github/abacus-develop/bin/ABACUS.mpi 
        targets = 14_Si_100
     Pseudo_dir = /gpfs/home/nic/wszhang/abacus/CIF_POT/SG15_ONCV_PBE-1.0 
           ecut = 60
    rcut_number = 1, info_r = ( 6 )
         Pseudo = Si_ONCV_PBE-1.0.upf
          sigma = 0.01
          nSTRU = 1
        STRU[1] = dimer
   BL_number[1] = 5, info[1] = 1.8 2.0 2.3 2.8 3.8
    EndLevel[1] = 2
  BeginLevel[1] = 
      nbands[1] = 8.0
   ref_bands[1] = 4.0
 RestartSTRU[1] = 
    SkipSTRU[1] = 0
 -------------------------------------------------------> Si
 The dir exist: 14_Si_100
    |run  cicle: rcut=6
    nSTRU = 1 
        |run  cicle: iSTRU=1

 not found BeginLevel[1], use: EndLevel[iSTRULeft]+1

 BeginLevel[iSTRU]=1,  EndLevel[iSTRU]=2 
 RestartSTRU[1] = 0 
 
 Completely New SIA Calculation ... 
 
            |run  cicle: BL=1.8
 na=2
 pwd:
/gpfs/home/nic/wszhang/abacus/wszhang@github/abacus-develop/tools/SIAB/example3_Si_PTG_dpsi/14_Si_100
 /opt/hpcx/2.9.0/ompi-icc/2019.update5/bin/mpirun -np 8 /gpfs/home/nic/wszhang/abacus/wszhang@github/abacus-develop/bin/ABACUS.mpi 
 *********************************************************
 *                                                       *
 *                  WELCOME TO ABACUS                    *
 *                                                       *
 *            'Atomic-orbital Based Ab-initio            *
 *                  Computation at UStc'                 *
 *                                                       *
 *          Website: http://abacus.ustc.edu.cn/          *
 *                                                       *
 *********************************************************
 Thu Nov 25 15:57:58 2021
 MAKE THE DIR         : OUT.Si-6-1.8/
 DONE(0.041162   SEC) : SETUP UNITCELL
 DONE(0.0415497  SEC) : INIT K-POINTS
 ---------------------------------------------------------
 Self-consistent calculations for electrons
 ---------------------------------------------------------
 SPIN    KPOINTS         PROCESSORS  
 1       1               8           
 ---------------------------------------------------------
 Use plane wave basis
 ---------------------------------------------------------
 ELEMENT NATOM       XC          
 Si      2           PBE
 ---------------------------------------------------------
 Initial plane wave basis and FFT box
 ---------------------------------------------------------
 DONE(0.27747    SEC) : INIT PLANEWAVE
 UNIFORM GRID DIM     : 100 * 100 * 100
 UNIFORM GRID DIM(BIG): 100 * 100 * 100
 MEMORY FOR PSI (MB)  : 0.955933
 DONE(0.309625   SEC) : LOCAL POTENTIAL
 DONE(0.319509   SEC) : NON-LOCAL POTENTIAL
 START POTENTIAL      : atomic
 DONE(0.400017   SEC) : INIT POTENTIAL
 DONE(0.50789    SEC) : INIT BASIS
 -------------------------------------------
 SELF-CONSISTENT : 
 -------------------------------------------
 ITER   ETOT(eV)       EDIFF(eV)      DRHO2      CG_ITER    TIME(S)    
 CG1    -2.061134e+02  0.000000e+00   3.390e-01  9.375e+00  9.900e-01  
 CG2    -2.069517e+02  -8.382940e-01  1.145e-02  2.750e+00  6.800e-01  
 CG3    -2.070164e+02  -6.475024e-02  5.445e-03  3.875e+00  7.000e-01  
 CG4    -2.070267e+02  -1.023794e-02  8.043e-04  2.000e+00  6.500e-01  
 CG5    -2.070282e+02  -1.512332e-03  4.549e-04  2.625e+00  6.800e-01  
 CG6    -2.070294e+02  -1.178367e-03  5.042e-05  2.375e+00  6.600e-01  
 CG7    -2.070294e+02  -6.655898e-05  1.637e-05  2.875e+00  6.700e-01  
 CG8    -2.070294e+02  -1.016812e-05  1.350e-06  2.375e+00  6.800e-01  
 CG9    -2.070294e+02  -4.752160e-06  3.658e-07  3.625e+00  7.000e-01  
 CG10   -2.070294e+02  -1.576162e-06  1.054e-07  3.125e+00  6.800e-01  
 CG11   -2.070294e+02  -2.702928e-07  6.393e-09  2.875e+00  6.500e-01  
 DONE(1.081e+01  SEC) : cal_overlap_Q
 DONE(1.124e+01  SEC) : cal_overlap_Sq
 DONE(1.174e+01  SEC) : cal_overlap_Q
 DONE(1.217e+01  SEC) : cal_overlap_Sq
 DONE(1.225e+01  SEC) : BASIS OVERLAP (Q and S) GENERATION.

  |CLASS_NAME---------|NAME---------------|TIME(Sec)-----|CALLS----|AVG------|PER%-------
                       total               12.254         25        0.49      1e+02     %
   Run_pw              plane_wave_line     12.237         1         12        1e+02     %
   PW_Basis            gen_pw              0.23578        1         0.24      1.9       %
   Cell_PW             opt_cells_pw        8.4888         1         8.5       69        %
   FFT                 FFT3D               1.8264         1042      0.0018    15        %
   Potential           v_of_rho            0.73063        12        0.061     6         %
   H_XC_pw             v_xc                0.63602        12        0.053     5.2       %
   wavefunc            wfcinit             0.10776        1         0.11      0.88      %
   Hamilt_PW           diagH_subspace      0.33839        11        0.031     2.8       %
   Hamilt_PW           h_psi               1.5243         322       0.0047    12        %
   Hamilt_PW           vloc                1.4234         322       0.0044    12        %
   Ions                opt_ions_pw         8.2684         1         8.3       67        %
   Electrons           self_consistent     8.2683         1         8.3       67        %
   Electrons           c_bands             1.61           11        0.15      13        %
   Hamilt              diagH_pw            1.5809         11        0.14      13        %
   Diago_CG            diag                1.2754         11        0.12      10        %
   Charge              sum_band            0.68906        11        0.063     5.6       %
   Charge              rho_mpi             0.40218        11        0.037     3.3       %
   Charge              mix_rho             0.19731        11        0.018     1.6       %
   Spillage            TableONe            1.7029         1         1.7       14        %
   Numerical_Basis     cal_overlap_Q       0.73103        2         0.37      6         %
   Numerical_Basis     cal_overlap_Sq      0.87317        2         0.44      7.1       %
 ----------------------------------------------------------------------------------------

 START  Time  : Thu Nov 25 15:57:58 2021
 FINISH Time  : Thu Nov 25 15:58:10 2021
 TOTAL  Time  : 12
 SEE INFORMATION IN : OUT.Si-6-1.8/

            |run  cicle: BL=2.0
 na=2
 pwd:
/gpfs/home/nic/wszhang/abacus/wszhang@github/abacus-develop/tools/SIAB/example3_Si_PTG_dpsi/14_Si_100
 /opt/hpcx/2.9.0/ompi-icc/2019.update5/bin/mpirun -np 8 /gpfs/home/nic/wszhang/abacus/wszhang@github/abacus-develop/bin/ABACUS.mpi 
 *********************************************************
 *                                                       *
 *                  WELCOME TO ABACUS                    *
 *                                                       *
 *            'Atomic-orbital Based Ab-initio            *
 *                  Computation at UStc'                 *
 *                                                       *
 *          Website: http://abacus.ustc.edu.cn/          *
 *                                                       *
 *********************************************************
 Thu Nov 25 15:58:11 2021
 MAKE THE DIR         : OUT.Si-6-2.0/
 DONE(0.0333749  SEC) : SETUP UNITCELL
 DONE(0.0335605  SEC) : INIT K-POINTS
 ---------------------------------------------------------
 Self-consistent calculations for electrons
 ---------------------------------------------------------
 SPIN    KPOINTS         PROCESSORS  
 1       1               8           
 ---------------------------------------------------------
 Use plane wave basis
 ---------------------------------------------------------
 ELEMENT NATOM       XC          
 Si      2           PBE
 ---------------------------------------------------------
 Initial plane wave basis and FFT box
 ---------------------------------------------------------
 DONE(0.218543   SEC) : INIT PLANEWAVE
 UNIFORM GRID DIM     : 100 * 100 * 100
 UNIFORM GRID DIM(BIG): 100 * 100 * 100
 MEMORY FOR PSI (MB)  : 0.955933
 DONE(0.243682   SEC) : LOCAL POTENTIAL
 DONE(0.252623   SEC) : NON-LOCAL POTENTIAL
 START POTENTIAL      : atomic
 DONE(0.333595   SEC) : INIT POTENTIAL
 DONE(0.44111    SEC) : INIT BASIS
 -------------------------------------------
 SELF-CONSISTENT : 
 -------------------------------------------
 ITER   ETOT(eV)       EDIFF(eV)      DRHO2      CG_ITER    TIME(S)    
 CG1    -2.076948e+02  0.000000e+00   1.216e-01  8.625e+00  8.700e-01  
 CG2    -2.080763e+02  -3.814992e-01  3.500e-02  3.250e+00  6.900e-01  
 CG3    -2.081751e+02  -9.880643e-02  1.355e-02  2.250e+00  6.700e-01  
 CG4    -2.081914e+02  -1.636395e-02  1.002e-03  2.000e+00  6.300e-01  
 CG5    -2.081931e+02  -1.641366e-03  1.344e-03  3.750e+00  7.200e-01  
 CG6    -2.081947e+02  -1.637627e-03  1.149e-04  2.000e+00  6.600e-01  
 CG7    -2.081947e+02  2.650665e-05   1.488e-04  3.250e+00  6.700e-01  
 CG8    -2.081950e+02  -2.949253e-04  9.356e-06  2.000e+00  6.400e-01  
 CG9    -2.081950e+02  1.036162e-05   1.373e-05  3.125e+00  7.000e-01  
 CG10   -2.081950e+02  -1.389378e-05  3.963e-07  2.000e+00  6.400e-01  
 CG11   -2.081950e+02  -1.561358e-06  1.933e-08  3.000e+00  6.600e-01  
 DONE(1.032e+01  SEC) : cal_overlap_Q
 DONE(1.076e+01  SEC) : cal_overlap_Sq
 DONE(1.125e+01  SEC) : cal_overlap_Q
 DONE(1.168e+01  SEC) : cal_overlap_Sq
 DONE(1.176e+01  SEC) : BASIS OVERLAP (Q and S) GENERATION.

  |CLASS_NAME---------|NAME---------------|TIME(Sec)-----|CALLS----|AVG------|PER%-------
                       total               11.764         25        0.47      1e+02     %
   Run_pw              plane_wave_line     11.75          1         12        1e+02     %
   PW_Basis            gen_pw              0.18487        1         0.18      1.6       %
   Cell_PW             opt_cells_pw        8.2194         1         8.2       70        %
   FFT                 FFT3D               1.7613         1000      0.0018    15        %
   Potential           v_of_rho            0.73492        12        0.061     6.2       %
   H_XC_pw             v_xc                0.64023        12        0.053     5.4       %
   wavefunc            wfcinit             0.10739        1         0.11      0.91      %
   Hamilt_PW           diagH_subspace      0.33807        11        0.031     2.9       %
   Hamilt_PW           h_psi               1.4278         301       0.0047    12        %
   Hamilt_PW           vloc                1.336          301       0.0044    11        %
   Ions                opt_ions_pw         8.0045         1         8         68        %
   Electrons           self_consistent     8.0044         1         8         68        %
   Electrons           c_bands             1.5046         11        0.14      13        %
   Hamilt              diagH_pw            1.4751         11        0.13      13        %
   Diago_CG            diag                1.1699         11        0.11      9.9       %
   Charge              sum_band            0.70198        11        0.064     6         %
   Charge              rho_mpi             0.4112         11        0.037     3.5       %
   Charge              mix_rho             0.20325        11        0.018     1.7       %
   Spillage            TableONe            1.5477         1         1.5       13        %
   Numerical_Basis     cal_overlap_Q       0.73003        2         0.37      6.2       %
   Numerical_Basis     cal_overlap_Sq      0.87297        2         0.44      7.4       %
 ----------------------------------------------------------------------------------------

 START  Time  : Thu Nov 25 15:58:11 2021
 FINISH Time  : Thu Nov 25 15:58:23 2021
 TOTAL  Time  : 12
 SEE INFORMATION IN : OUT.Si-6-2.0/

            |run  cicle: BL=2.3
 na=2
 pwd:
/gpfs/home/nic/wszhang/abacus/wszhang@github/abacus-develop/tools/SIAB/example3_Si_PTG_dpsi/14_Si_100
 /opt/hpcx/2.9.0/ompi-icc/2019.update5/bin/mpirun -np 8 /gpfs/home/nic/wszhang/abacus/wszhang@github/abacus-develop/bin/ABACUS.mpi 
 *********************************************************
 *                                                       *
 *                  WELCOME TO ABACUS                    *
 *                                                       *
 *            'Atomic-orbital Based Ab-initio            *
 *                  Computation at UStc'                 *
 *                                                       *
 *          Website: http://abacus.ustc.edu.cn/          *
 *                                                       *
 *********************************************************
 Thu Nov 25 15:58:23 2021
 MAKE THE DIR         : OUT.Si-6-2.3/
 DONE(0.0330508  SEC) : SETUP UNITCELL
 DONE(0.0332211  SEC) : INIT K-POINTS
 ---------------------------------------------------------
 Self-consistent calculations for electrons
 ---------------------------------------------------------
 SPIN    KPOINTS         PROCESSORS  
 1       1               8           
 ---------------------------------------------------------
 Use plane wave basis
 ---------------------------------------------------------
 ELEMENT NATOM       XC          
 Si      2           PBE
 ---------------------------------------------------------
 Initial plane wave basis and FFT box
 ---------------------------------------------------------
 DONE(0.218744   SEC) : INIT PLANEWAVE
 UNIFORM GRID DIM     : 100 * 100 * 100
 UNIFORM GRID DIM(BIG): 100 * 100 * 100
 MEMORY FOR PSI (MB)  : 0.955933
 DONE(0.244837   SEC) : LOCAL POTENTIAL
 DONE(0.253784   SEC) : NON-LOCAL POTENTIAL
 START POTENTIAL      : atomic
 DONE(0.331596   SEC) : INIT POTENTIAL
 DONE(0.43721    SEC) : INIT BASIS
 -------------------------------------------
 SELF-CONSISTENT : 
 -------------------------------------------
 ITER   ETOT(eV)       EDIFF(eV)      DRHO2      CG_ITER    TIME(S)    
 CG1    -2.084306e+02  0.000000e+00   5.293e-02  3.250e+00  1.070e+00  
 CG2    -2.084468e+02  -1.618786e-02  2.363e-02  2.000e+00  6.400e-01  
 CG3    -2.084801e+02  -3.324030e-02  2.898e-03  2.500e+00  6.900e-01  
 CG4    -2.084905e+02  -1.045502e-02  6.489e-04  3.250e+00  6.800e-01  
 CG5    -2.084899e+02  6.548677e-04   2.272e-04  2.500e+00  7.000e-01  
 CG6    -2.084901e+02  -2.307318e-04  4.060e-04  3.125e+00  6.800e-01  
 CG7    -2.084908e+02  -7.029287e-04  2.555e-05  2.125e+00  6.500e-01  
 CG8    -2.084909e+02  -6.023034e-05  8.237e-06  3.500e+00  7.100e-01  
 CG9    -2.084909e+02  -4.118497e-06  2.014e-06  2.000e+00  6.600e-01  
 CG10   -2.084909e+02  -3.641201e-06  1.763e-07  2.875e+00  6.700e-01  
 CG11   -2.084909e+02  -9.452066e-07  7.140e-09  3.250e+00  6.700e-01  
 DONE(1.062e+01  SEC) : cal_overlap_Q
 DONE(1.106e+01  SEC) : cal_overlap_Sq
 DONE(1.155e+01  SEC) : cal_overlap_Q
 DONE(1.199e+01  SEC) : cal_overlap_Sq
 DONE(1.206e+01  SEC) : BASIS OVERLAP (Q and S) GENERATION.

  |CLASS_NAME---------|NAME---------------|TIME(Sec)-----|CALLS----|AVG------|PER%-------
                       total               12.061         25        0.48      1e+02     %
   Run_pw              plane_wave_line     12.048         1         12        1e+02     %
   PW_Basis            gen_pw              0.18542        1         0.19      1.5       %
   Cell_PW             opt_cells_pw        8.4831         1         8.5       70        %
   FFT                 FFT3D               1.8987         1080      0.0018    16        %
   Potential           v_of_rho            0.72847        12        0.061     6         %
   H_XC_pw             v_xc                0.63519        12        0.053     5.3       %
   wavefunc            wfcinit             0.1055         1         0.11      0.87      %
   Hamilt_PW           diagH_subspace      0.34889        11        0.032     2.9       %
   Hamilt_PW           h_psi               1.5849         336       0.0047    13        %
   Hamilt_PW           vloc                1.4801         336       0.0044    12        %
   Ions                opt_ions_pw         8.2722         1         8.3       69        %
   Electrons           self_consistent     8.2721         1         8.3       69        %
   Electrons           c_bands             1.674          12        0.14      14        %
   Hamilt              diagH_pw            1.6424         12        0.14      14        %
   Diago_CG            diag                1.3261         12        0.11      11        %
   Charge              sum_band            0.74746        12        0.062     6.2       %
   Charge              rho_mpi             0.43541        12        0.036     3.6       %
   Charge              mix_rho             0.20692        12        0.017     1.7       %
   Spillage            TableONe            1.583          1         1.6       13        %
   Numerical_Basis     cal_overlap_Q       0.73037        2         0.37      6.1       %
   Numerical_Basis     cal_overlap_Sq      0.87351        2         0.44      7.2       %
 ----------------------------------------------------------------------------------------

 START  Time  : Thu Nov 25 15:58:23 2021
 FINISH Time  : Thu Nov 25 15:58:36 2021
 TOTAL  Time  : 13
 SEE INFORMATION IN : OUT.Si-6-2.3/

            |run  cicle: BL=2.8
 na=2
 pwd:
/gpfs/home/nic/wszhang/abacus/wszhang@github/abacus-develop/tools/SIAB/example3_Si_PTG_dpsi/14_Si_100
 /opt/hpcx/2.9.0/ompi-icc/2019.update5/bin/mpirun -np 8 /gpfs/home/nic/wszhang/abacus/wszhang@github/abacus-develop/bin/ABACUS.mpi 
 *********************************************************
 *                                                       *
 *                  WELCOME TO ABACUS                    *
 *                                                       *
 *            'Atomic-orbital Based Ab-initio            *
 *                  Computation at UStc'                 *
 *                                                       *
 *          Website: http://abacus.ustc.edu.cn/          *
 *                                                       *
 *********************************************************
 Thu Nov 25 15:58:36 2021
 MAKE THE DIR         : OUT.Si-6-2.8/
 DONE(0.0328277  SEC) : SETUP UNITCELL
 DONE(0.0330192  SEC) : INIT K-POINTS
 ---------------------------------------------------------
 Self-consistent calculations for electrons
 ---------------------------------------------------------
 SPIN    KPOINTS         PROCESSORS  
 1       1               8           
 ---------------------------------------------------------
 Use plane wave basis
 ---------------------------------------------------------
 ELEMENT NATOM       XC          
 Si      2           PBE
 ---------------------------------------------------------
 Initial plane wave basis and FFT box
 ---------------------------------------------------------
 DONE(0.218335   SEC) : INIT PLANEWAVE
 UNIFORM GRID DIM     : 100 * 100 * 100
 UNIFORM GRID DIM(BIG): 100 * 100 * 100
 MEMORY FOR PSI (MB)  : 0.955933
 DONE(0.244219   SEC) : LOCAL POTENTIAL
 DONE(0.253179   SEC) : NON-LOCAL POTENTIAL
 START POTENTIAL      : atomic
 DONE(0.331386   SEC) : INIT POTENTIAL
 DONE(0.439      SEC) : INIT BASIS
 -------------------------------------------
 SELF-CONSISTENT : 
 -------------------------------------------
 ITER   ETOT(eV)       EDIFF(eV)      DRHO2      CG_ITER    TIME(S)    
 CG1    -2.076511e+02  0.000000e+00   4.018e-02  4.000e+00  1.090e+00  
 CG2    -2.076244e+02  2.677264e-02   1.194e-02  2.000e+00  6.400e-01  
 CG3    -2.076359e+02  -1.152800e-02  4.860e-03  2.500e+00  6.600e-01  
 CG4    -2.076460e+02  -1.008584e-02  1.726e-03  2.000e+00  6.300e-01  
 CG5    -2.076488e+02  -2.806087e-03  3.573e-05  2.125e+00  6.700e-01  
 CG6    -2.076490e+02  -2.077537e-04  2.127e-05  4.375e+00  7.200e-01  
 CG7    -2.076491e+02  -1.041168e-04  8.980e-06  3.125e+00  6.700e-01  
 CG8    -2.076491e+02  -1.447506e-05  4.416e-07  2.750e+00  6.600e-01  
 CG9    -2.076491e+02  -1.242186e-06  6.999e-08  3.125e+00  6.800e-01  
 DONE(9.283e+00  SEC) : cal_overlap_Q
 DONE(9.716e+00  SEC) : cal_overlap_Sq
 DONE(1.021e+01  SEC) : cal_overlap_Q
 DONE(1.064e+01  SEC) : cal_overlap_Sq
 DONE(1.072e+01  SEC) : BASIS OVERLAP (Q and S) GENERATION.

  |CLASS_NAME---------|NAME---------------|TIME(Sec)-----|CALLS----|AVG------|PER%-------
                       total               10.724         25        0.43      1e+02     %
   Run_pw              plane_wave_line     10.71          1         11        1e+02     %
   PW_Basis            gen_pw              0.18522        1         0.19      1.7       %
   Cell_PW             opt_cells_pw        7.0834         1         7.1       66        %
   FFT                 FFT3D               1.6338         934       0.0017    15        %
   Potential           v_of_rho            0.61621        10        0.062     5.7       %
   H_XC_pw             v_xc                0.53683        10        0.054     5         %
   wavefunc            wfcinit             0.10749        1         0.11      1         %
   Hamilt_PW           diagH_subspace      0.27667        9         0.031     2.6       %
   Hamilt_PW           h_psi               1.3791         298       0.0046    13        %
   Hamilt_PW           vloc                1.2851         298       0.0043    12        %
   Ions                opt_ions_pw         6.8703         1         6.9       64        %
   Electrons           self_consistent     6.8703         1         6.9       64        %
   Electrons           c_bands             1.4671         10        0.15      14        %
   Hamilt              diagH_pw            1.4253         10        0.14      13        %
   Diago_CG            diag                1.1817         10        0.12      11        %
   Charge              sum_band            0.64458        10        0.064     6         %
   Charge              rho_mpi             0.38188        10        0.038     3.6       %
   Charge              mix_rho             0.16482        10        0.016     1.5       %
   Spillage            TableONe            1.6389         1         1.6       15        %
   Numerical_Basis     cal_overlap_Q       0.73648        2         0.37      6.9       %
   Numerical_Basis     cal_overlap_Sq      0.87117        2         0.44      8.1       %
 ----------------------------------------------------------------------------------------

 START  Time  : Thu Nov 25 15:58:36 2021
 FINISH Time  : Thu Nov 25 15:58:47 2021
 TOTAL  Time  : 11
 SEE INFORMATION IN : OUT.Si-6-2.8/

            |run  cicle: BL=3.8
 na=2
 pwd:
/gpfs/home/nic/wszhang/abacus/wszhang@github/abacus-develop/tools/SIAB/example3_Si_PTG_dpsi/14_Si_100
 /opt/hpcx/2.9.0/ompi-icc/2019.update5/bin/mpirun -np 8 /gpfs/home/nic/wszhang/abacus/wszhang@github/abacus-develop/bin/ABACUS.mpi 
 *********************************************************
 *                                                       *
 *                  WELCOME TO ABACUS                    *
 *                                                       *
 *            'Atomic-orbital Based Ab-initio            *
 *                  Computation at UStc'                 *
 *                                                       *
 *          Website: http://abacus.ustc.edu.cn/          *
 *                                                       *
 *********************************************************
 Thu Nov 25 15:58:47 2021
 MAKE THE DIR         : OUT.Si-6-3.8/
 DONE(0.0326801  SEC) : SETUP UNITCELL
 DONE(0.0328595  SEC) : INIT K-POINTS
 ---------------------------------------------------------
 Self-consistent calculations for electrons
 ---------------------------------------------------------
 SPIN    KPOINTS         PROCESSORS  
 1       1               8           
 ---------------------------------------------------------
 Use plane wave basis
 ---------------------------------------------------------
 ELEMENT NATOM       XC          
 Si      2           PBE
 ---------------------------------------------------------
 Initial plane wave basis and FFT box
 ---------------------------------------------------------
 DONE(0.218573   SEC) : INIT PLANEWAVE
 UNIFORM GRID DIM     : 100 * 100 * 100
 UNIFORM GRID DIM(BIG): 100 * 100 * 100
 MEMORY FOR PSI (MB)  : 0.955933
 DONE(0.245366   SEC) : LOCAL POTENTIAL
 DONE(0.254325   SEC) : NON-LOCAL POTENTIAL
 START POTENTIAL      : atomic
 DONE(0.333251   SEC) : INIT POTENTIAL
 DONE(0.44049    SEC) : INIT BASIS
 -------------------------------------------
 SELF-CONSISTENT : 
 -------------------------------------------
 ITER   ETOT(eV)       EDIFF(eV)      DRHO2      CG_ITER    TIME(S)    
 CG1    -2.037712e+02  0.000000e+00   1.758e-01  7.375e+00  8.500e-01  
 CG2    -2.048635e+02  -1.092304e+00  1.612e+00  2.500e+00  6.700e-01  
 CG3    -2.056017e+02  -7.381203e-01  1.364e-01  2.125e+00  6.600e-01  
 CG4    -2.056828e+02  -8.112489e-02  2.397e-02  2.000e+00  6.500e-01  
 CG5    -2.053875e+02  2.953279e-01   4.621e-01  2.000e+00  6.400e-01  
 CG6    -2.055855e+02  -1.980093e-01  3.602e-03  2.000e+00  6.800e-01  
 CG7    -2.055859e+02  -4.369387e-04  5.532e-04  2.000e+00  6.400e-01  
 CG8    -2.055857e+02  1.597850e-04   1.718e-03  2.750e+00  6.700e-01  
 CG9    -2.055868e+02  -1.025011e-03  4.655e-05  2.000e+00  6.600e-01  
 CG10   -2.055869e+02  -8.343782e-05  4.211e-06  2.250e+00  6.600e-01  
 CG11   -2.055869e+02  -1.635913e-05  5.723e-06  2.875e+00  6.700e-01  
 CG12   -2.055869e+02  -4.498870e-06  4.450e-07  2.000e+00  6.300e-01  
 CG13   -2.055869e+02  -2.617329e-08  2.494e-08  2.250e+00  6.400e-01  
 DONE(1.159e+01  SEC) : cal_overlap_Q
 DONE(1.202e+01  SEC) : cal_overlap_Sq
 DONE(1.251e+01  SEC) : cal_overlap_Q
 DONE(1.295e+01  SEC) : cal_overlap_Sq
 DONE(1.302e+01  SEC) : BASIS OVERLAP (Q and S) GENERATION.

  |CLASS_NAME---------|NAME---------------|TIME(Sec)-----|CALLS----|AVG------|PER%-------
                       total               13.024         25        0.52      1e+02     %
   Run_pw              plane_wave_line     13.011         1         13        1e+02     %
   PW_Basis            gen_pw              0.1856         1         0.19      1.4       %
   Cell_PW             opt_cells_pw        9.3852         1         9.4       72        %
   FFT                 FFT3D               1.8961         1056      0.0018    15        %
   Potential           v_of_rho            0.86577        14        0.062     6.6       %
   H_XC_pw             v_xc                0.75079        14        0.054     5.8       %
   H_Hartree_pw        v_hartree           0.10981        14        0.0078    0.84      %
   wavefunc            wfcinit             0.10712        1         0.11      0.82      %
   Hamilt_PW           diagH_subspace      0.40251        13        0.031     3.1       %
   Hamilt_PW           h_psi               1.4645         294       0.005     11        %
   Hamilt_PW           vloc                1.37           294       0.0047    11        %
   Ions                opt_ions_pw         9.171          1         9.2       70        %
   Electrons           self_consistent     9.1709         1         9.2       70        %
   Electrons           c_bands             1.5474         13        0.12      12        %
   Hamilt              diagH_pw            1.5126         13        0.12      12        %
   Diago_CG            diag                1.1432         13        0.088     8.8       %
   Charge              sum_band            0.84757        13        0.065     6.5       %
   Charge              rho_mpi             0.46083        13        0.035     3.5       %
   Charge              mix_rho             0.22942        13        0.018     1.8       %
   Spillage            TableONe            1.6438         1         1.6       13        %
   Numerical_Basis     cal_overlap_Q       0.73058        2         0.37      5.6       %
   Numerical_Basis     cal_overlap_Sq      0.87337        2         0.44      6.7       %
 ----------------------------------------------------------------------------------------

 START  Time  : Thu Nov 25 15:58:47 2021
 FINISH Time  : Thu Nov 25 15:59:01 2021
 TOTAL  Time  : 14
 SEE INFORMATION IN : OUT.Si-6-3.8/

 Using PyTorch Gradient Method V2 (include dpsi) 

 iSTRULeft: 0, iSTRU: 1 
 BeginLevel[STRUs]: (1) 
 EndLevel[STRUs]: (0 2) 
 numL = 2 2 1 0 0, LValueMax = 2 
 init_from_file : false 
 
 Set OMP_NUM_THREADS = 8 
 Python2 Version:  /usr/bin/python2
 Python3 Version:  /opt/anaconda3/bin/python3

 Run /home/nic/wszhang/abacus/wszhang@github/abacus-develop/tools/opt_orb_pytorch_dpsi/main.py

3.7.4 (default, Aug 13 2019, 20:35:49) 
[GCC 7.3.0]
seed: 1444606934
../OUT.Si-6-1.8/orb_matrix.0.dat
Si 3 3
../OUT.Si-6-2.0/orb_matrix.0.dat
Si 3 3
../OUT.Si-6-2.3/orb_matrix.0.dat
Si 3 3
../OUT.Si-6-2.8/orb_matrix.0.dat
Si 3 3
../OUT.Si-6-3.8/orb_matrix.0.dat
Si 3 3
read QI: 0 0
read SI: 0 0
read VI: 0 0
read QI: 1 0
read SI: 1 0
read VI: 1 0
read QI: 2 0
read SI: 2 0
read VI: 2 0
read QI: 3 0
read SI: 3 0
read VI: 3 0
read QI: 4 0
read SI: 4 0
read VI: 4 0
Nt_all	['Si']
Nu	{'Si': [2, 2, 1]}
Rcut	{'Si': 6}
dr	{'Si': 0.01}
Ecut	{'Si': 60}
lr	0.01
cal_T	True
cal_smooth	True
Nl	{'Si': 3}
Nst	5
Nt	[['Si'], ['Si'], ['Si'], ['Si'], ['Si']]
Na	[{'Si': 2}, {'Si': 2}, {'Si': 2}, {'Si': 2}, {'Si': 2}]
Nb	[8, 8, 8, 8, 8]
Ne	{'Si': 14}
../OUT.Si-6-1.8/orb_matrix.1.dat
Si 3 3
../OUT.Si-6-2.0/orb_matrix.1.dat
Si 3 3
../OUT.Si-6-2.3/orb_matrix.1.dat
Si 3 3
../OUT.Si-6-2.8/orb_matrix.1.dat
Si 3 3
../OUT.Si-6-3.8/orb_matrix.1.dat
Si 3 3
read QI: 0 0
read SI: 0 0
read VI: 0 0
read QI: 1 0
read SI: 1 0
read VI: 1 0
read QI: 2 0
read SI: 2 0
read VI: 2 0
read QI: 3 0
read SI: 3 0
read VI: 3 0
read QI: 4 0
read SI: 4 0
read VI: 4 0

See "Spillage.dat" for detail status: 
istep             Spillage             T.item()                 Loss
0	6.755878925323486	0.06611980497837067	6.76939058303833
100	0.051285453140735626	0.0345599427819252	0.05834786966443062
Time (PyTorch):     37.36940574645996


 unset OMP_NUM_THREADS 
 Total Time:   108  

