<PP_INFO>
Generated using ld1 code (maybe, or maybe not)                                  
Author: unknown    Generation date: as well                                     
Info: automatically converted from PWSCF format                                 
    0        The Pseudo was generated with a Non-Relativistic Calculation
nl pn  l   occ               Rcut            Rcut US             E pseu
*S  0  0  2.00      0.00000000000      0.00000000000      0.00000000000
*P  0  1  4.00      0.00000000000      0.00000000000      0.00000000000
</PP_INFO>


<PP_HEADER>
   0                   Version Number
  O                    Element
   NC                  Norm - Conserving pseudopotential
    F                  Nonlinear Core Correction
SLA  PZ   NOGX NOGC    PZ   Exchange-Correlation functional
    6.00000000000      Z valence
    0.00000000000      Total energy
  0.0000000  0.0000000 Suggested cutoff for wfc and rho
    1                  Max angular momentum component
 1130                  Number of points in mesh
    2    1             Number of Wavefunctions, Number of Projectors
 Wavefunctions         nl  l   occ
                       *S  0  2.00
                       *P  1  4.00
</PP_HEADER>


<PP_MESH>
  <PP_R>
  5.00000005428E-05  5.06542439179E-05  5.13170479808E-05  5.19885247469E-05
  5.26687876975E-05  5.33579517985E-05  5.40561335204E-05  5.47634508575E-05
  5.54800233481E-05  5.62059720947E-05  5.69414197844E-05  5.76864907096E-05
  5.84413107889E-05  5.92060075890E-05  5.99807103452E-05  6.07655499842E-05
  6.15606591458E-05  6.23661722053E-05  6.31822252963E-05  6.40089563338E-05
  6.48465050373E-05  6.56950129544E-05  6.65546234852E-05  6.74254819056E-05
  6.83077353930E-05  6.92015330503E-05  7.01070259314E-05  7.10243670667E-05
  7.19537114891E-05  7.28952162599E-05  7.38490404959E-05  7.48153453954E-05
  7.57942942664E-05  7.67860525535E-05  7.77907878662E-05  7.88086700073E-05
  7.98398710011E-05  8.08845651232E-05  8.19429289293E-05  8.30151412854E-05
  8.41013833980E-05  8.52018388445E-05  8.63166936046E-05  8.74461360914E-05
  8.85903571832E-05  8.97495502563E-05  9.09239112170E-05  9.21136385352E-05
  9.33189332774E-05  9.45399991415E-05  9.57770424905E-05  9.70302723876E-05
  9.82999006317E-05  9.95861417929E-05  1.00889213249E-04  1.02209335223E-04
  1.03546730817E-04  1.04901626055E-04  1.06274249918E-04  1.07664834382E-04
  1.09073614459E-04  1.10500828237E-04  1.11946716917E-04  1.13411524860E-04
  1.14895499619E-04  1.16398891992E-04  1.17921956055E-04  1.19464949209E-04
  1.21028132223E-04  1.22611769280E-04  1.24216128018E-04  1.25841479577E-04
  1.27488098645E-04  1.29156263506E-04  1.30846256083E-04  1.32558361988E-04
  1.34292870572E-04  1.36050074971E-04  1.37830272156E-04  1.39633762986E-04
  1.41460852253E-04  1.43311848742E-04  1.45187065274E-04  1.47086818765E-04
  1.49011430279E-04  1.50961225079E-04  1.52936532686E-04  1.54937686931E-04
  1.56965026013E-04  1.59018892559E-04  1.61099633675E-04  1.63207601014E-04
  1.65343150825E-04  1.67506644023E-04  1.69698446241E-04  1.71918927902E-04
  1.74168464270E-04  1.76447435523E-04  1.78756226813E-04  1.81095228331E-04
  1.83464835373E-04  1.85865448409E-04  1.88297473148E-04  1.90761320608E-04
  1.93257407186E-04  1.95786154725E-04  1.98347990591E-04  2.00943347739E-04
  2.03572664791E-04  2.06236386107E-04  2.08934961864E-04  2.11668848127E-04
  2.14438506929E-04  2.17244406349E-04  2.20087020591E-04  2.22966830063E-04
  2.25884321460E-04  2.28839987845E-04  2.31834328733E-04  2.34867850173E-04
  2.37941064840E-04  2.41054492113E-04  2.44208658169E-04  2.47404096069E-04
  2.50641345850E-04  2.53920954616E-04  2.57243476627E-04  2.60609473398E-04
  2.64019513790E-04  2.67474174108E-04  2.70974038198E-04  2.74519697546E-04
  2.78111751376E-04  2.81750806754E-04  2.85437478689E-04  2.89172390237E-04
  2.92956172608E-04  2.96789465268E-04  3.00672916055E-04  3.04607181280E-04
  3.08592925844E-04  3.12630823347E-04  3.16721556203E-04  3.20865815756E-04
  3.25064302396E-04  3.29317725676E-04  3.33626804436E-04  3.37992266919E-04
  3.42414850901E-04  3.46895303807E-04  3.51434382845E-04  3.56032855130E-04
  3.60691497815E-04  3.65411098222E-04  3.70192453974E-04  3.75036373132E-04
  3.79943674329E-04  3.84915186912E-04  3.89951751077E-04  3.95054218017E-04
  4.00223450060E-04  4.05460320818E-04  4.10765715336E-04  4.16140530237E-04
  4.21585673878E-04  4.27102066501E-04  4.32690640391E-04  4.38352340028E-04
  4.44088122254E-04  4.49898956430E-04  4.55785824600E-04  4.61749721660E-04
  4.67791655521E-04  4.73912647285E-04  4.80113731415E-04  4.86395955908E-04
  4.92760382476E-04  4.99208086721E-04  5.05740158320E-04  5.12357701211E-04
  5.19061833772E-04  5.25853689018E-04  5.32734414790E-04  5.39705173945E-04
  5.46767144560E-04  5.53921520123E-04  5.61169509741E-04  5.68512338343E-04
  5.75951246882E-04  5.83487492554E-04  5.91122349000E-04  5.98857106530E-04
  6.06693072336E-04  6.14631570716E-04  6.22673943294E-04  6.30821549250E-04
  6.39075765550E-04  6.47437987175E-04  6.55909627361E-04  6.64492117835E-04
  6.73186909058E-04  6.81995470472E-04  6.90919290743E-04  6.99959878019E-04
  7.09118760180E-04  7.18397485099E-04  7.27797620903E-04  7.37320756237E-04
  7.46968500534E-04  7.56742484286E-04  7.66644359318E-04  7.76675799072E-04
  7.86838498885E-04  7.97134176276E-04  8.07564571241E-04  8.18131446540E-04
  8.28836588001E-04  8.39681804818E-04  8.50668929858E-04  8.61799819972E-04
  8.73076356307E-04  8.84500444625E-04  8.96074015622E-04  9.07799025261E-04
  9.19677455096E-04  9.31711312610E-04  9.43902631553E-04  9.56253472287E-04
  9.68765922135E-04  9.81442095729E-04  9.94284135372E-04  1.00729421140E-03
  1.02047452255E-03  1.03382729632E-03  1.04735478937E-03  1.06105928786E-03
  1.07494310791E-03  1.08900859589E-03  1.10325812892E-03  1.11769411521E-03
  1.13231899445E-03  1.14713523830E-03  1.16214535074E-03  1.17735186851E-03
  1.19275736154E-03  1.20836443341E-03  1.22417572174E-03  1.24019389869E-03
  1.25642167135E-03  1.27286178227E-03  1.28951700986E-03  1.30639016889E-03
  1.32348411097E-03  1.34080172502E-03  1.35834593774E-03  1.37611971417E-03
  1.39412605810E-03  1.41236801265E-03  1.43084866076E-03  1.44957112570E-03
  1.46853857161E-03  1.48775420403E-03  1.50722127045E-03  1.52694306086E-03
  1.54692290828E-03  1.56716418935E-03  1.58767032490E-03  1.60844478051E-03
  1.62949106712E-03  1.65081274159E-03  1.67241340735E-03  1.69429671496E-03
  1.71646636274E-03  1.73892609743E-03  1.76167971476E-03  1.78473106016E-03
  1.80808402935E-03  1.83174256905E-03  1.85571067761E-03  1.87999240568E-03
  1.90459185695E-03  1.92951318877E-03  1.95476061291E-03  1.98033839625E-03
  2.00625086150E-03  2.03250238791E-03  2.05909741206E-03  2.08604042858E-03
  2.11333599090E-03  2.14098871202E-03  2.16900326534E-03  2.19738438537E-03
  2.22613686859E-03  2.25526557424E-03  2.28477542514E-03  2.31467140853E-03
  2.34495857689E-03  2.37564204883E-03  2.40672700993E-03  2.43821871363E-03
  2.47012248209E-03  2.50244370713E-03  2.53518785112E-03  2.56836044788E-03
  2.60196710367E-03  2.63601349810E-03  2.67050538508E-03  2.70544859383E-03
  2.74084902983E-03  2.77671267584E-03  2.81304559290E-03  2.84985392136E-03
  2.88714388191E-03  2.92492177666E-03  2.96319399014E-03  3.00196699046E-03
  3.04124733035E-03  3.08104164828E-03  3.12135666958E-03  3.16219920758E-03
  3.20357616478E-03  3.24549453397E-03  3.28796139946E-03  3.33098393826E-03
  3.37456942127E-03  3.41872521454E-03  3.46345878051E-03  3.50877767926E-03
  3.55468956979E-03  3.60120221132E-03  3.64832346459E-03  3.69606129321E-03
  3.74442376498E-03  3.79341905329E-03  3.84305543844E-03  3.89334130911E-03
  3.94428516372E-03  3.99589561192E-03  4.04818137599E-03  4.10115129234E-03
  4.15481431302E-03  4.20917950721E-03  4.26425606276E-03  4.32005328773E-03
  4.37658061199E-03  4.43384758878E-03  4.49186389638E-03  4.55063933966E-03
  4.61018385182E-03  4.67050749603E-03  4.73162046711E-03  4.79353309332E-03
  4.85625583803E-03  4.91979930154E-03  4.98417422284E-03  5.04939148144E-03
  5.11546209922E-03  5.18239724228E-03  5.25020822280E-03  5.31890650100E-03
  5.38850368707E-03  5.45901154308E-03  5.53044198504E-03  5.60280708485E-03
  5.67611907240E-03  5.75039033758E-03  5.82563343242E-03  5.90186107317E-03
  5.97908614249E-03  6.05732169159E-03  6.13658094248E-03  6.21687729016E-03
  6.29822430489E-03  6.38063573452E-03  6.46412550678E-03  6.54870773164E-03
  6.63439670368E-03  6.72120690456E-03  6.80915300541E-03  6.89824986931E-03
  6.98851255387E-03  7.07995631368E-03  7.17259660296E-03  7.26644907813E-03
  7.36152960050E-03  7.45785423888E-03  7.55543927239E-03  7.65430119311E-03
  7.75445670896E-03  7.85592274644E-03  7.95871645357E-03  8.06285520272E-03
  8.16835659359E-03  8.27523845616E-03  8.38351885373E-03  8.49321608594E-03
  8.60434869188E-03  8.71693545323E-03  8.83099539742E-03  8.94654780085E-03
  9.06361219215E-03  9.18220835549E-03  9.30235633389E-03  9.42407643265E-03
  9.54738922276E-03  9.67231554438E-03  9.79887651034E-03  9.92709350975E-03
  1.00569882116E-02  1.01885825684E-02  1.03218988199E-02  1.04569594968E-02
  1.05937874248E-02  1.07324057281E-02  1.08728378335E-02  1.10151074744E-02
  1.11592386947E-02  1.13052558528E-02  1.14531836261E-02  1.16030470147E-02
  1.17548713459E-02  1.19086822783E-02  1.20645058063E-02  1.22223682645E-02
  1.23822963321E-02  1.25443170372E-02  1.27084577618E-02  1.28747462459E-02
  1.30432105929E-02  1.32138792734E-02  1.33867811310E-02  1.35619453865E-02
  1.37394016430E-02  1.39191798911E-02  1.41013105137E-02  1.42858242914E-02
  1.44727524074E-02  1.46621264530E-02  1.48539784328E-02  1.50483407704E-02
  1.52452463134E-02  1.54447283392E-02  1.56468205610E-02  1.58515571326E-02
  1.60589726551E-02  1.62691021823E-02  1.64819812264E-02  1.66976457645E-02
  1.69161322446E-02  1.71374775913E-02  1.73617192124E-02  1.75888950055E-02
  1.78190433636E-02  1.80522031825E-02  1.82884138667E-02  1.85277153364E-02
  1.87701480340E-02  1.90157529314E-02  1.92645715362E-02  1.95166458995E-02
  1.97720186224E-02  2.00307328635E-02  2.02928323462E-02  2.05583613658E-02
  2.08273647974E-02  2.10998881032E-02  2.13759773403E-02  2.16556791685E-02
  2.19390408580E-02  2.22261102977E-02  2.25169360028E-02  2.28115671238E-02
  2.31100534539E-02  2.34124454380E-02  2.37187941811E-02  2.40291514569E-02
  2.43435697165E-02  2.46621020973E-02  2.49848024320E-02  2.53117252579E-02
  2.56429258255E-02  2.59784601087E-02  2.63183848134E-02  2.66627573878E-02
  2.70116360317E-02  2.73650797063E-02  2.77231481446E-02  2.80859018608E-02
  2.84534021614E-02  2.88257111546E-02  2.92028917616E-02  2.95850077268E-02
  2.99721236288E-02  3.03643048909E-02  3.07616177929E-02  3.11641294815E-02
  3.15719079822E-02  3.19850222104E-02  3.24035419835E-02  3.28275380324E-02
  3.32570820133E-02  3.36922465202E-02  3.41331050970E-02  3.45797322497E-02
  3.50322034596E-02  3.54905951951E-02  3.59549849258E-02  3.64254511345E-02
  3.69020733311E-02  3.73849320659E-02  3.78741089433E-02  3.83696866352E-02
  3.88717488954E-02  3.93803805738E-02  3.98956676301E-02  4.04176971493E-02
  4.09465573555E-02  4.14823376273E-02  4.20251285130E-02  4.25750217453E-02
  4.31321102577E-02  4.36964881994E-02  4.42682509516E-02  4.48474951435E-02
  4.54343186689E-02  4.60288207023E-02  4.66311017159E-02  4.72412634967E-02
  4.78594091634E-02  4.84856431843E-02  4.91200713942E-02  4.97628010131E-02
  5.04139406638E-02  5.10736003905E-02  5.17418916771E-02  5.24189274667E-02
  5.31048221797E-02  5.37996917341E-02  5.45036535645E-02  5.52168266420E-02
  5.59393314946E-02  5.66712902274E-02  5.74128265432E-02  5.81640657632E-02
  5.89251348488E-02  5.96961624225E-02  6.04772787897E-02  6.12686159609E-02
  6.20703076741E-02  6.28824894170E-02  6.37052984503E-02  6.45388738306E-02
  6.53833564342E-02  6.62388889807E-02  6.71056160571E-02  6.79836841423E-02
  6.88732416319E-02  6.97744388633E-02  7.06874281410E-02  7.16123637622E-02
  7.25494020433E-02  7.34987013461E-02  7.44604221043E-02  7.54347268511E-02
  7.64217802463E-02  7.74217491042E-02  7.84348024220E-02  7.94611114081E-02
  8.05008495111E-02  8.15541924493E-02  8.26213182402E-02  8.37024072305E-02
  8.47976421268E-02  8.59072080264E-02  8.70312924487E-02  8.81700853665E-02
  8.93237792387E-02  9.04925690421E-02  9.16766523050E-02  9.28762291404E-02
  9.40915022796E-02  9.53226771066E-02  9.65699616930E-02  9.78335668326E-02
  9.91137060780E-02  1.00410595776E-01  1.01724455103E-01  1.03055506105E-01
  1.04403973733E-01  1.05770085881E-01  1.07154073426E-01  1.08556170264E-01
  1.09976613353E-01  1.11415642751E-01  1.12873501658E-01  1.14350436456E-01
  1.15846696749E-01  1.17362535410E-01  1.18898208619E-01  1.20453975908E-01
  1.22030100206E-01  1.23626847881E-01  1.25244488788E-01  1.26883296311E-01
  1.28543547413E-01  1.30225522681E-01  1.31929506373E-01  1.33655786464E-01
  1.35404654702E-01  1.37176406649E-01  1.38971341735E-01  1.40789763308E-01
  1.42631978686E-01  1.44498299209E-01  1.46389040288E-01  1.48304521463E-01
  1.50245066455E-01  1.52211003221E-01  1.54202664009E-01  1.56220385414E-01
  1.58264508436E-01  1.60335378537E-01  1.62433345698E-01  1.64558764481E-01
  1.66711994087E-01  1.68893398417E-01  1.71103346133E-01  1.73342210722E-01
  1.75610370558E-01  1.77908208963E-01  1.80236114280E-01  1.82594479929E-01
  1.84983704479E-01  1.87404191716E-01  1.89856350707E-01  1.92340595874E-01
  1.94857347059E-01  1.97407029599E-01  1.99990074397E-01  2.02606917994E-01
  2.05258002642E-01  2.07943776381E-01  2.10664693113E-01  2.13421212680E-01
  2.16213800940E-01  2.19042929847E-01  2.21909077530E-01  2.24812728375E-01
  2.27754373107E-01  2.30734508869E-01  2.33753639313E-01  2.36812274679E-01
  2.39910931882E-01  2.43050134604E-01  2.46230413377E-01  2.49452305676E-01
  2.52716356008E-01  2.56023116006E-01  2.59373144520E-01  2.62767007713E-01
  2.66205279155E-01  2.69688539924E-01  2.73217378697E-01  2.76792391858E-01
  2.80414183591E-01  2.84083365989E-01  2.87800559152E-01  2.91566391295E-01
  2.95381498852E-01  2.99246526585E-01  3.03162127693E-01  3.07128963922E-01
  3.11147705678E-01  3.15219032136E-01  3.19343631361E-01  3.23522200419E-01
  3.27755445500E-01  3.32044082030E-01  3.36388834801E-01  3.40790438086E-01
  3.45249635766E-01  3.49767181456E-01  3.54343838632E-01  3.58980380760E-01
  3.63677591427E-01  3.68436264473E-01  3.73257204124E-01  3.78141225131E-01
  3.83089152905E-01  3.88101823658E-01  3.93180084543E-01  3.98324793797E-01
  4.03536820890E-01  4.08817046667E-01  4.14166363497E-01  4.19585675428E-01
  4.25075898337E-01  4.30637960085E-01  4.36272800672E-01  4.41981372402E-01
  4.47764640035E-01  4.53623580958E-01  4.59559185347E-01  4.65572456331E-01
  4.71664410168E-01  4.77836076414E-01  4.84088498093E-01  4.90422731881E-01
  4.96839848278E-01  5.03340931792E-01  5.09927081121E-01  5.16599409341E-01
  5.23359044090E-01  5.30207127764E-01  5.37144817704E-01  5.44173286396E-01
  5.51293721670E-01  5.58507326894E-01  5.65815321186E-01  5.73218939614E-01
  5.80719433407E-01  5.88318070166E-01  5.96016134080E-01  6.03814926138E-01
  6.11715764357E-01  6.19719983995E-01  6.27828937786E-01  6.36043996162E-01
  6.44366547486E-01  6.52797998291E-01  6.61339773512E-01  6.69993316728E-01
  6.78760090409E-01  6.87641576161E-01  6.96639274977E-01  7.05754707487E-01
  7.14989414223E-01  7.24344955872E-01  7.33822913542E-01  7.43424889032E-01
  7.53152505097E-01  7.63007405728E-01  7.72991256426E-01  7.83105744487E-01
  7.93352579282E-01  8.03733492551E-01  8.14250238694E-01  8.24904595065E-01
  8.35698362276E-01  8.46633364499E-01  8.57711449776E-01  8.68934490329E-01
  8.80304382880E-01  8.91823048966E-01  9.03492435270E-01  9.15314513946E-01
  9.27291282954E-01  9.39424766395E-01  9.51717014858E-01  9.64170105761E-01
  9.76786143708E-01  9.89567260837E-01  1.00251561719E+00  1.01563340107E+00
  1.02892282940E+00  1.04238614815E+00  1.05602563264E+00  1.06984358797E+00
  1.08384234941E+00  1.09802428279E+00  1.11239178489E+00  1.12694728385E+00
  1.14169323958E+00  1.15663214419E+00  1.17176652238E+00  1.18709893190E+00
  1.20263196397E+00  1.21836824370E+00  1.23431043056E+00  1.25046121883E+00
  1.26682333801E+00  1.28339955336E+00  1.30019266628E+00  1.31720551486E+00
  1.33444097431E+00  1.35190195746E+00  1.36959141526E+00  1.38751233726E+00
  1.40566775216E+00  1.42406072825E+00  1.44269437399E+00  1.46157183851E+00
  1.48069631215E+00  1.50007102700E+00  1.51969925742E+00  1.53958432063E+00
  1.55972957725E+00  1.58013843189E+00  1.60081433368E+00  1.62176077690E+00
  1.64298130156E+00  1.66447949396E+00  1.68625898737E+00  1.70832346255E+00
  1.73067664847E+00  1.75332232285E+00  1.77626431289E+00  1.79950649582E+00
  1.82305279963E+00  1.84690720370E+00  1.87107373949E+00  1.89555649119E+00
  1.92035959645E+00  1.94548724705E+00  1.97094368963E+00  1.99673322638E+00
  2.02286021580E+00  2.04932907341E+00  2.07614427252E+00  2.10331034494E+00
  2.13083188182E+00  2.15871353436E+00  2.18696001463E+00  2.21557609634E+00
  2.24456661568E+00  2.27393647213E+00  2.30369062925E+00  2.33383411558E+00
  2.36437202542E+00  2.39530951976E+00  2.42665182711E+00  2.45840424440E+00
  2.49057213785E+00  2.52316094393E+00  2.55617617020E+00  2.58962339634E+00
  2.62350827499E+00  2.65783653279E+00  2.69261397128E+00  2.72784646795E+00
  2.76353997716E+00  2.79970053120E+00  2.83633424130E+00  2.87344729864E+00
  2.91104597541E+00  2.94913662587E+00  2.98772568745E+00  3.02681968178E+00
  3.06642521583E+00  3.10654898305E+00  3.14719776444E+00  3.18837842975E+00
  3.23009793859E+00  3.27236334168E+00  3.31518178196E+00  3.35856049585E+00
  3.40250681445E+00  3.44702816481E+00  3.49213207113E+00  3.53782615609E+00
  3.58411814208E+00  3.63101585257E+00  3.67852721339E+00  3.72666025405E+00
  3.77542310917E+00  3.82482401978E+00  3.87487133476E+00  3.92557351221E+00
  3.97693912093E+00  4.02897684182E+00  4.08169546939E+00  4.13510391321E+00
  4.18921119944E+00  4.24402647232E+00  4.29955899578E+00  4.35581815495E+00
  4.41281345775E+00  4.47055453653E+00  4.52905114966E+00  4.58831318322E+00
  4.64835065263E+00  4.70917370436E+00  4.77079261766E+00  4.83321780626E+00
  4.89645982018E+00  4.96052934746E+00  5.02543721600E+00  5.09119439540E+00
  5.15781199877E+00  5.22530128464E+00  5.29367365886E+00  5.36294067653E+00
  5.43311404395E+00  5.50420562056E+00  5.57622742103E+00  5.64919161720E+00
  5.72311054020E+00  5.79799668251E+00  5.87386270005E+00  5.95072141437E+00
  6.02858581477E+00  6.10746906052E+00  6.18738448309E+00  6.26834558835E+00
  6.35036605894E+00  6.43345975651E+00  6.51764072409E+00  6.60292318846E+00
  6.68932156257E+00  6.77685044794E+00  6.86552463717E+00  6.95535911640E+00
  7.04636906788E+00  7.13856987250E+00  7.23197711242E+00  7.32660657369E+00
  7.42247424890E+00  7.51959633993E+00  7.61798926064E+00  7.71766963966E+00
  7.81865432322E+00  7.92096037797E+00  8.02460509388E+00  8.12960598715E+00
  8.23598080318E+00  8.34374751957E+00  8.45292434914E+00  8.56352974306E+00
  8.67558239388E+00  8.78910123877E+00  8.90410546269E+00  9.02061450163E+00
  9.13864804588E+00  9.25822604341E+00  9.37936870318E+00  9.50209649858E+00
  9.62643017090E+00  9.75239073284E+00  9.87999947202E+00  1.00092779546E+01
  1.01402480290E+01  1.02729318295E+01  1.04073517799E+01  1.05435305975E+01
  1.06814912968E+01  1.08212571937E+01  1.09628519087E+01  1.11062993718E+01
  1.12516238260E+01  1.13988498313E+01  1.15480022694E+01  1.16991063474E+01
  1.18521876022E+01  1.20072719049E+01  1.21643854651E+01  1.23235548354E+01
  1.24848069158E+01  1.26481689583E+01  1.28136685715E+01  1.29813337252E+01
  1.31511927551E+01  1.33232743679E+01  1.34976076458E+01  1.36742220515E+01
  1.38531474333E+01  1.40344140300E+01  1.42180524761E+01  1.44040938068E+01
  1.45925694637E+01  1.47835112996E+01  1.49769515841E+01  1.51729230090E+01
  1.53714586940E+01  1.55725921922E+01  1.57763574955E+01  1.59827890407E+01
  1.61919217154E+01  1.64037908633E+01  1.66184322909E+01  1.68358822732E+01
  1.70561775596E+01  1.72793553807E+01  1.75054534539E+01  1.77345099904E+01
  1.79665637013E+01  1.82016538043E+01  1.84398200300E+01  1.86811026292E+01
  1.89255423793E+01  1.91731805910E+01  1.94240591159E+01  1.96782203530E+01
  1.99357072562E+01  2.01965633414E+01  2.04608326939E+01  2.07285599757E+01
  2.09997904336E+01  2.12745699060E+01  2.15529448313E+01  2.18349622557E+01
  2.21206698406E+01  2.24101158714E+01  2.27033492651E+01  2.30004195788E+01
  2.33013770182E+01  2.36062724458E+01  2.39151573896E+01  2.42280840520E+01
  2.45451053182E+01  2.48662747656E+01  2.51916466726E+01  2.55212760279E+01
  2.58552185396E+01  2.61935306447E+01  2.65362695189E+01  2.68834930858E+01
  2.72352600270E+01  2.75916297919E+01  2.79526626080E+01  2.83184194906E+01
  2.86889622535E+01  2.90643535192E+01  2.94446567299E+01  2.98299361577E+01
  3.02202569157E+01  3.06156849690E+01  3.10162871460E+01  3.14221311493E+01
  3.18332855675E+01  3.22498198868E+01  3.26718045024E+01  3.30993107307E+01
  3.35324108213E+01  3.39711779692E+01  3.44156863269E+01  3.48660110176E+01
  3.53222281472E+01  3.57844148173E+01  3.62526491388E+01  3.67270102442E+01
  3.72075783017E+01  3.76944345286E+01  3.81876612046E+01  3.86873416863E+01
  3.91935604207E+01  3.97064029602E+01  4.02259559763E+01  4.07523072746E+01
  4.12855458099E+01  4.18257617007E+01  4.23730462448E+01  4.29274919345E+01
  4.34891924726E+01  4.40582427877E+01  4.46347390507E+01  4.52187786908E+01
  4.58104604121E+01  4.64098842103E+01  4.70171513894E+01  4.76323645789E+01
  4.82556277515E+01  4.88870462400E+01  4.95267267557E+01  5.01747774060E+01
  5.08313077132E+01  5.14964286323E+01  5.21702525705E+01  5.28528934055E+01
  5.35444665053E+01  5.42450887474E+01  5.49548785386E+01  5.56739558350E+01
  5.64024421625E+01  5.71404606370E+01  5.78881359853E+01  5.86455945664E+01
  5.94129643925E+01  6.01903751510E+01  6.09779582262E+01  6.17758467215E+01
  6.25841754819E+01  6.34030811169E+01  6.42327020235E+01  6.50731784096E+01
  6.59246523178E+01  6.67872676491E+01  6.76611701876E+01  6.85465076249E+01
  6.94434295852E+01  7.03520876503E+01  7.12726353857E+01  7.22052283661E+01
  7.31500242020E+01  7.41071825660E+01  7.50768652203E+01  7.60592360435E+01
  7.70544610586E+01  7.80627084611E+01  7.90841486470E+01  8.01189542423E+01
  8.11673001316E+01  8.22293634878E+01  8.33053238021E+01  8.43953629144E+01
  8.54996650439E+01  8.66184168203E+01  8.77518073153E+01  8.89000280747E+01
  9.00632731503E+01  9.12417391335E+01  9.24356251877E+01  9.36451330826E+01
  9.48704672279E+01  9.61118347079E+01  9.73694453168E+01  9.86435115936E+01
  9.99342488587E+01  1.01241875250E+02  1.02566611759E+02  1.03908682269E+02
  1.05268313594E+02  1.06645735515E+02  1.08041180818E+02  1.09454885339E+02
  1.10887087995E+02  1.12338030834E+02  1.13807959067E+02  1.15297121115E+02
  1.16805768652E+02  1.18334156642E+02
  </PP_R>
  <PP_RAB>
  6.50000007057E-07  6.58505170933E-07  6.67121623750E-07  6.75850821710E-07
  6.84694240067E-07  6.93653373380E-07  7.02729735765E-07  7.11924861147E-07
  7.21240303525E-07  7.30677637231E-07  7.40238457197E-07  7.49924379224E-07
  7.59737040256E-07  7.69678098656E-07  7.79749234487E-07  7.89952149794E-07
  8.00288568895E-07  8.10760238668E-07  8.21368928852E-07  8.32116432340E-07
  8.43004565485E-07  8.54035168408E-07  8.65210105307E-07  8.76531264773E-07
  8.88000560110E-07  8.99619929654E-07  9.11391337108E-07  9.23316771867E-07
  9.35398249358E-07  9.47637811379E-07  9.60037526446E-07  9.72599490140E-07
  9.85325825463E-07  9.98218683195E-07  1.01128024226E-06  1.02451271009E-06
  1.03791832301E-06  1.05149934660E-06  1.06525807608E-06  1.07919683671E-06
  1.09331798417E-06  1.10762390498E-06  1.12211701686E-06  1.13679976919E-06
  1.15167464338E-06  1.16674415333E-06  1.18201084582E-06  1.19747730096E-06
  1.21314613261E-06  1.22901998884E-06  1.24510155238E-06  1.26139354104E-06
  1.27789870821E-06  1.29461984331E-06  1.31155977224E-06  1.32872135789E-06
  1.34610750062E-06  1.36372113872E-06  1.38156524893E-06  1.39964284696E-06
  1.41795698797E-06  1.43651076708E-06  1.45530731993E-06  1.47434982317E-06
  1.49364149505E-06  1.51318559590E-06  1.53298542871E-06  1.55304433971E-06
  1.57336571890E-06  1.59395300064E-06  1.61480966423E-06  1.63593923450E-06
  1.65734528239E-06  1.67903142558E-06  1.70100132908E-06  1.72325870585E-06
  1.74580731744E-06  1.76865097462E-06  1.79179353803E-06  1.81523891881E-06
  1.83899107929E-06  1.86305403364E-06  1.88743184856E-06  1.91212864394E-06
  1.93714859363E-06  1.96249592603E-06  1.98817492492E-06  2.01418993010E-06
  2.04054533817E-06  2.06724560326E-06  2.09429523778E-06  2.12169881318E-06
  2.14946096073E-06  2.17758637229E-06  2.20607980114E-06  2.23494606272E-06
  2.26419003551E-06  2.29381666180E-06  2.32383094857E-06  2.35423796830E-06
  2.38504285985E-06  2.41625082931E-06  2.44786715092E-06  2.47989716791E-06
  2.51234629342E-06  2.54522001143E-06  2.57852387768E-06  2.61226352060E-06
  2.64644464228E-06  2.68107301940E-06  2.71615450424E-06  2.75169502565E-06
  2.78770059008E-06  2.82417728254E-06  2.86113126768E-06  2.89856879082E-06
  2.93649617898E-06  2.97491984198E-06  3.01384627352E-06  3.05328205225E-06
  3.09323384292E-06  3.13370839747E-06  3.17471255619E-06  3.21625324890E-06
  3.25833749605E-06  3.30097241000E-06  3.34416519615E-06  3.38792315417E-06
  3.43225367927E-06  3.47716426340E-06  3.52266249658E-06  3.56875606810E-06
  3.61545276789E-06  3.66276048780E-06  3.71068722296E-06  3.75924107308E-06
  3.80843024390E-06  3.85826304849E-06  3.90874790872E-06  3.95989335665E-06
  4.01170803598E-06  4.06420070351E-06  4.11738023064E-06  4.17125560483E-06
  4.22583593114E-06  4.28113043379E-06  4.33714845766E-06  4.39389946995E-06
  4.45139306171E-06  4.50963894949E-06  4.56864697698E-06  4.62842711669E-06
  4.68898947160E-06  4.75034427688E-06  4.81250190166E-06  4.87547285071E-06
  4.93926776628E-06  5.00389742986E-06  5.06937276401E-06  5.13570483422E-06
  5.20290485078E-06  5.27098417064E-06  5.33995429936E-06  5.40982689308E-06
  5.48061376041E-06  5.55232686452E-06  5.62497832508E-06  5.69858042036E-06
  5.77314558930E-06  5.84868643359E-06  5.92521571980E-06  6.00274638157E-06
  6.08129152177E-06  6.16086441471E-06  6.24147850840E-06  6.32314742681E-06
  6.40588497219E-06  6.48970512737E-06  6.57462205817E-06  6.66065011574E-06
  6.74780383903E-06  6.83609795724E-06  6.92554739226E-06  7.01616726129E-06
  7.10797287927E-06  7.20097976160E-06  7.29520362664E-06  7.39066039846E-06
  7.48736620947E-06  7.58533740320E-06  7.68459053700E-06  7.78514238489E-06
  7.88700994037E-06  7.99021041931E-06  8.09476126282E-06  8.20068014025E-06
  8.30798495215E-06  8.41669383327E-06  8.52682515569E-06  8.63839753185E-06
  8.75142981776E-06  8.86594111613E-06  8.98195077966E-06  9.09947841424E-06
  9.21854388234E-06  9.33916730629E-06  9.46136907174E-06  9.58516983109E-06
  9.71059050695E-06  9.83765229572E-06  9.96637667114E-06  1.00967853879E-05
  1.02289004855E-05  1.03627442916E-05  1.04983394261E-05  1.06357088050E-05
  1.07748756440E-05  1.09158634626E-05  1.10586960882E-05  1.12033976596E-05
  1.13499926320E-05  1.14985057801E-05  1.16489622031E-05  1.18013873284E-05
  1.19558069162E-05  1.21122470639E-05  1.22707342102E-05  1.24312951397E-05
  1.25939569878E-05  1.27587472445E-05  1.29256937598E-05  1.30948247482E-05
  1.32661687932E-05  1.34397548522E-05  1.36156122618E-05  1.37937707422E-05
  1.39742604028E-05  1.41571117466E-05  1.43423556760E-05  1.45300234977E-05
  1.47201469279E-05  1.49127580979E-05  1.51078895596E-05  1.53055742906E-05
  1.55058457001E-05  1.57087376343E-05  1.59142843827E-05  1.61225206829E-05
  1.63334817276E-05  1.65472031695E-05  1.67637211282E-05  1.69830721956E-05
  1.72052934426E-05  1.74304224252E-05  1.76584971907E-05  1.78895562842E-05
  1.81236387553E-05  1.83607841645E-05  1.86010325899E-05  1.88444246341E-05
  1.90910014309E-05  1.93408046524E-05  1.95938765159E-05  1.98502597912E-05
  2.01099978076E-05  2.03731344615E-05  2.06397142236E-05  2.09097821466E-05
  2.11833838725E-05  2.14605656407E-05  2.17413742956E-05  2.20258572945E-05
  2.23140627157E-05  2.26060392665E-05  2.29018362919E-05  2.32015037821E-05
  2.35050923816E-05  2.38126533977E-05  2.41242388089E-05  2.44399012739E-05
  2.47596941403E-05  2.50836714540E-05  2.54118879679E-05  2.57443991513E-05
  2.60812611995E-05  2.64225310428E-05  2.67682663568E-05  2.71185255716E-05
  2.74733678817E-05  2.78328532563E-05  2.81970424494E-05  2.85659970098E-05
  2.89397792917E-05  2.93184524651E-05  2.97020805268E-05  3.00907283108E-05
  3.04844614995E-05  3.08833466348E-05  3.12874511291E-05  3.16968432772E-05
  3.21115922672E-05  3.25317681927E-05  3.29574420645E-05  3.33886858225E-05
  3.38255723478E-05  3.42681754753E-05  3.47165700061E-05  3.51708317198E-05
  3.56310373878E-05  3.60972647859E-05  3.65695927076E-05  3.70481009776E-05
  3.75328704649E-05  3.80239830965E-05  3.85215218718E-05  3.90255708760E-05
  3.95362152946E-05  4.00535414276E-05  4.05776367045E-05  4.11085896985E-05
  4.16464901421E-05  4.21914289416E-05  4.27434981930E-05  4.33027911974E-05
  4.38694024765E-05  4.44434277891E-05  4.50249641467E-05  4.56141098304E-05
  4.62109644073E-05  4.68156287471E-05  4.74282050397E-05  4.80487968117E-05
  4.86775089448E-05  4.93144476927E-05  4.99597206997E-05  5.06134370184E-05
  5.12757071284E-05  5.19466429550E-05  5.26263578878E-05  5.33149668004E-05
  5.40125860693E-05  5.47193335938E-05  5.54353288159E-05  5.61606927405E-05
  5.68955479558E-05  5.76400186542E-05  5.83942306529E-05  5.91583114156E-05
  5.99323900737E-05  6.07165974483E-05  6.15110660725E-05  6.23159302132E-05
  6.31313258944E-05  6.39573909200E-05  6.47942648969E-05  6.56420892587E-05
  6.65010072899E-05  6.73711641496E-05  6.82527068964E-05  6.91457845131E-05