<PP_INFO>
Generated using unknown code
Author: X. Gonze et al.   Generation date: 1990
Info:  Sn BHS modified for use as KB with l=2 as local part
    1        The Pseudo was generated with a Scalar-Relativistic Calculation
  0.00000000000E+00    Local Potential cutoff radius
nl pn  l   occ               Rcut            Rcut US             E pseu
5S  0  0  2.00      0.00000000000      0.00000000000      0.00000000000
5P  0  1  2.00      0.00000000000      0.00000000000      0.00000000000
</PP_INFO>


<PP_HEADER>
   0                   Version Number
  Sn                   Element
   NC                  Norm - Conserving pseudopotential
    F                  Nonlinear Core Correction
 SLA  PZ   NOGX NOGC   PZ   Exchange-Correlation functional
    4.00000000000      Z valence
    0.00000000000      Total energy
  0.0000000  0.0000000 Suggested cutoff for wfc and rho
    1                  Max angular momentum component
  601                  Number of points in mesh
    2    2             Number of Wavefunctions, Number of Projectors
 Wavefunctions         nl  l   occ
                       5S  0  2.00
                       5P  1  2.00
</PP_HEADER>


<PP_MESH>
  <PP_R>
  1.82376393111E-05  1.86993273483E-05  1.91727030739E-05  1.96580623630E-05
  2.01557085810E-05  2.06659527730E-05  2.11891138582E-05  2.17255188293E-05
  2.22755029569E-05  2.28394099990E-05  2.34175924158E-05  2.40104115902E-05
  2.46182380535E-05  2.52414517169E-05  2.58804421093E-05  2.65356086205E-05
  2.72073607510E-05  2.78961183675E-05  2.86023119662E-05  2.93263829409E-05
  3.00687838596E-05  3.08299787470E-05  3.16104433747E-05  3.24106655586E-05
  3.32311454635E-05  3.40723959161E-05  3.49349427252E-05  3.58193250108E-05
  3.67260955406E-05  3.76558210756E-05  3.86090827246E-05  3.95864763071E-05
  4.05886127259E-05  4.16161183490E-05  4.26696354008E-05  4.37498223637E-05
  4.48573543897E-05  4.59929237225E-05  4.71572401298E-05  4.83510313473E-05
  4.95750435333E-05  5.08300417354E-05  5.21168103682E-05  5.34361537040E-05
  5.47888963754E-05  5.61758838905E-05  5.75979831618E-05  5.90560830475E-05
  6.05510949075E-05  6.20839531730E-05  6.36556159302E-05  6.52670655195E-05
  6.69193091494E-05  6.86133795260E-05  7.03503354982E-05  7.21312627203E-05
  7.39572743297E-05  7.58295116430E-05  7.77491448695E-05  7.97173738426E-05
  8.17354287693E-05  8.38045709997E-05  8.59260938150E-05  8.81013232362E-05
  9.03316188523E-05  9.26183746707E-05  9.49630199882E-05  9.73670202846E-05
  9.98318781382E-05  1.02359134165E-04  1.04950367984E-04  1.07607199198E-04
  1.10331288415E-04  1.13124338279E-04  1.15988094537E-04  1.18924347129E-04
  1.21934931310E-04  1.25021728793E-04  1.28186668925E-04  1.31431729899E-04
  1.34758939982E-04  1.38170378789E-04  1.41668178581E-04  1.45254525596E-04
  1.48931661418E-04  1.52701884377E-04  1.56567550985E-04  1.60531077408E-04
  1.64594940980E-04  1.68761681749E-04  1.73033904062E-04  1.77414278199E-04
  1.81905542034E-04  1.86510502755E-04  1.91232038611E-04  1.96073100716E-04
  2.01036714893E-04  2.06125983560E-04  2.11344087677E-04  2.16694288729E-04
  2.22179930765E-04  2.27804442490E-04  2.33571339408E-04  2.39484226016E-04
  2.45546798061E-04  2.51762844849E-04  2.58136251610E-04  2.64671001931E-04
  2.71371180244E-04  2.78240974379E-04  2.85284678180E-04  2.92506694192E-04
  2.99911536410E-04  3.07503833100E-04  3.15288329697E-04  3.23269891763E-04
  3.31453508035E-04  3.39844293539E-04  3.48447492790E-04  3.57268483066E-04
  3.66312777775E-04  3.75586029894E-04  3.85094035508E-04  3.94842737430E-04
  4.04838228916E-04  4.15086757474E-04  4.25594728768E-04  4.36368710621E-04
  4.47415437123E-04  4.58741812839E-04  4.70354917120E-04  4.82262008536E-04
  4.94470529407E-04  5.06988110454E-04  5.19822575575E-04  5.32981946727E-04
  5.46474448946E-04  5.60308515484E-04  5.74492793085E-04  5.89036147382E-04
  6.03947668446E-04  6.19236676464E-04  6.34912727561E-04  6.50985619782E-04
  6.67465399207E-04  6.84362366233E-04  7.01687082017E-04  7.19450375069E-04
  7.37663348025E-04  7.56337384587E-04  7.75484156634E-04  7.95115631524E-04
  8.15244079567E-04  8.35882081698E-04  8.57042537341E-04  8.78738672468E-04
  9.00984047871E-04  9.23792567634E-04  9.47178487823E-04  9.71156425400E-04
  9.95741367357E-04  1.02094868008E-03  1.04679411897E-03  1.07329383825E-03
  1.10046440113E-03  1.12832279008E-03  1.15688641750E-03  1.18617313659E-03
  1.21620125250E-03  1.24698953379E-03  1.27855722413E-03  1.31092405436E-03
  1.34411025479E-03  1.37813656789E-03  1.41302426121E-03  1.44879514069E-03
  1.48547156429E-03  1.52307645597E-03  1.56163332002E-03  1.60116625573E-03
  1.64169997248E-03  1.68325980515E-03  1.72587172999E-03  1.76956238084E-03
  1.81435906579E-03  1.86028978421E-03  1.90738324431E-03  1.95566888103E-03
  2.00517687446E-03  2.05593816871E-03  2.10798449124E-03  2.16134837270E-03
  2.21606316725E-03  2.27216307342E-03  2.32968315547E-03  2.38865936533E-03
  2.44912856506E-03  2.51112854986E-03  2.57469807176E-03  2.63987686376E-03
  2.70670566473E-03  2.77522624486E-03  2.84548143173E-03  2.91751513712E-03
  2.99137238445E-03  3.06709933690E-03  3.14474332627E-03  3.22435288260E-03
  3.30597776443E-03  3.38966898999E-03  3.47547886901E-03  3.56346103546E-03
  3.65367048105E-03  3.74616358964E-03  3.84099817242E-03  3.93823350408E-03
  4.03793035989E-03  4.14015105362E-03  4.24495947653E-03  4.35242113730E-03
  4.46260320297E-03  4.57557454090E-03  4.69140576188E-03  4.81016926417E-03
  4.93193927883E-03  5.05679191609E-03  5.18480521292E-03  5.31605918178E-03
  5.45063586068E-03  5.58861936443E-03  5.73009593720E-03  5.87515400647E-03
  6.02388423824E-03  6.17637959376E-03  6.33273538758E-03  6.49304934717E-03
  6.65742167396E-03  6.82595510602E-03  6.99875498222E-03  7.17592930812E-03
  7.35758882343E-03  7.54384707126E-03  7.73482046909E-03  7.93062838150E-03
  8.13139319481E-03  8.33724039357E-03  8.54829863897E-03  8.76469984930E-03
  8.98657928234E-03  9.21407561998E-03  9.44733105482E-03  9.68649137911E-03
  9.93170607583E-03  1.01831284122E-02  1.04409155352E-02  1.07052285704E-02
  1.09762327219E-02  1.12540973761E-02  1.15389962076E-02  1.18311072873E-02
  1.21306131943E-02  1.24377011293E-02  1.27525630324E-02  1.30753957026E-02
  1.34064009207E-02  1.37457855758E-02  1.40937617944E-02  1.44505470728E-02
  1.48163644136E-02  1.51914424645E-02  1.55760156614E-02  1.59703243752E-02
  1.63746150616E-02  1.67891404154E-02  1.72141595285E-02  1.76499380517E-02
  1.80967483607E-02  1.85548697266E-02  1.90245884900E-02  1.95061982406E-02
  2.00000000000E-02  2.05063024105E-02  2.10254219275E-02  2.15576830177E-02
  2.21034183615E-02  2.26629690613E-02  2.32366848546E-02  2.38249243322E-02
  2.44280551632E-02  2.50464543238E-02  2.56805083338E-02  2.63306134974E-02
  2.69971761515E-02  2.76806129196E-02  2.83813509719E-02  2.90998282924E-02
  2.98364939528E-02  3.05918083933E-02  3.13662437098E-02  3.21602839497E-02
  3.29744254140E-02  3.38091769676E-02  3.46650603573E-02  3.55426105383E-02
  3.64423760078E-02  3.73649191486E-02  3.83108165803E-02  3.92806595194E-02
  4.02750541494E-02  4.12946219993E-02  4.23400003323E-02  4.34118425437E-02
  4.45108185698E-02  4.56376153066E-02  4.67929370385E-02  4.79775058793E-02
  4.91920622231E-02  5.04373652072E-02  5.17141931863E-02  5.30233442197E-02
  5.43656365692E-02  5.57419092113E-02  5.71530223613E-02  5.85998580107E-02
  6.00833204789E-02  6.16043369784E-02  6.31638581938E-02  6.47628588768E-02
  6.64023384547E-02  6.80833216558E-02  6.98068591492E-02  7.15740282020E-02
  7.33859333524E-02  7.52437071000E-02  7.71485106139E-02  7.91015344584E-02
  8.11039993369E-02  8.31571568551E-02  8.52622903034E-02  8.74207154586E-02
  8.96337814068E-02  9.19028713861E-02  9.42294036518E-02  9.66148323622E-02
  9.90606484879E-02  1.01568380744E-01  1.04139596544E-01  1.06775902981E-01
  1.09478947835E-01  1.12250420594E-01  1.15092053520E-01  1.18005622726E-01
  1.20992949288E-01  1.24055900382E-01  1.27196390452E-01  1.30416382407E-01
  1.33717888846E-01  1.37102973318E-01  1.40573751612E-01  1.44132393076E-01
  1.47781121979E-01  1.51522218893E-01  1.55358022126E-01  1.59290929181E-01
  1.63323398251E-01  1.67457949763E-01  1.71697167944E-01  1.76043702444E-01
  1.80500269989E-01  1.85069656078E-01  1.89754716727E-01  1.94558380251E-01
  1.99483649096E-01  2.04533601716E-01  2.09711394495E-01  2.15020263722E-01
  2.20463527613E-01  2.26044588386E-01  2.31766934384E-01  2.37634142262E-01
  2.43649879214E-01  2.49817905272E-01  2.56142075653E-01  2.62626343170E-01
  2.69274760700E-01  2.76091483721E-01  2.83080772908E-01  2.90246996792E-01
  2.97594634497E-01  3.05128278537E-01  3.12852637684E-01  3.20772539913E-01
  3.28892935422E-01  3.37218899722E-01  3.45755636811E-01  3.54508482429E-01
  3.63482907389E-01  3.72684520998E-01  3.82119074565E-01  3.91792464992E-01
  4.01710738464E-01  4.11880094224E-01  4.22306888451E-01  4.32997638230E-01
  4.43959025629E-01  4.55197901871E-01  4.66721291619E-01  4.78536397368E-01
  4.90650603942E-01  5.03071483116E-01  5.15806798344E-01  5.28864509611E-01
  5.42252778413E-01  5.55979972853E-01  5.70054672875E-01  5.84485675625E-01
  5.99282000948E-01  6.14452897030E-01  6.30007846175E-01  6.45956570732E-01
  6.62309039174E-01  6.79075472325E-01  6.96266349752E-01  7.13892416313E-01
  7.31964688874E-01  7.50494463192E-01  7.69493320981E-01  7.88973137144E-01
  8.08946087201E-01  8.29424654897E-01  8.50421640001E-01  8.71950166314E-01
  8.94023689866E-01  9.16656007327E-01  9.39861264632E-01  9.63653965822E-01
  9.88048982111E-01  1.01306156118E+00  1.03870733670E+00  1.06500233811E+00
  1.09196300066E+00  1.11960617563E+00  1.14794914091E+00  1.17700961177E+00
  1.20680575195E+00  1.23735618501E+00  1.26868000596E+00  1.30079679322E+00
  1.33372662082E+00  1.36749007097E+00  1.40210824693E+00  1.43760278619E+00
  1.47399587399E+00  1.51131025719E+00  1.54956925851E+00  1.58879679105E+00
  1.62901737330E+00  1.67025614444E+00  1.71253888004E+00  1.75589200820E+00
  1.80034262601E+00  1.84591851657E+00  1.89264816630E+00  1.94056078274E+00
  1.98968631284E+00  2.04005546165E+00  2.09169971154E+00  2.14465134184E+00
  2.19894344904E+00  2.25460996748E+00  2.31168569054E+00  2.37020629241E+00
  2.43020835037E+00  2.49172936766E+00  2.55480779692E+00  2.61948306422E+00
  2.68579559370E+00  2.75378683286E+00  2.82349927843E+00  2.89497650296E+00
  2.96826318205E+00  3.04340512225E+00  3.12044928973E+00  3.19944383959E+00
  3.28043814600E+00  3.36348283304E+00  3.44862980634E+00  3.53593228553E+00
  3.62544483750E+00  3.71722341052E+00  3.81132536917E+00  3.90780953025E+00
  4.00673619950E+00  4.10816720930E+00  4.21216595733E+00  4.31879744621E+00
  4.42812832408E+00  4.54022692631E+00  4.65516331815E+00  4.77300933861E+00
  4.89383864528E+00  5.01772676042E+00  5.14475111812E+00  5.27499111274E+00
  5.40852814852E+00  5.54544569046E+00  5.68582931648E+00  5.82976677091E+00
  5.97734801934E+00  6.12866530487E+00  6.28381320571E+00  6.44288869437E+00
  6.60599119819E+00  6.77322266156E+00  6.94468760957E+00  7.12049321342E+00
  7.30074935731E+00  7.48556870721E+00  7.67506678122E+00  7.86936202182E+00
  8.06857586985E+00  8.27283284046E+00  8.48226060090E+00  8.69699005033E+00
  8.91715540165E+00  9.14289426538E+00  9.37434773565E+00  9.61166047841E+00
  9.85498082187E+00  1.01044608491E+01  1.03602564934E+01  1.06225276352E+01
  1.08914382025E+01  1.11671562733E+01  1.14498541803E+01  1.17397086188E+01
  1.20369007574E+01  1.23416163509E+01  1.26540458562E+01  1.29743845522E+01
  1.33028326609E+01  1.36395954730E+01  1.39848834763E+01  1.43389124870E+01
  1.47019037848E+01  1.50740842511E+01  1.54556865107E+01  1.58469490775E+01
  1.62481165034E+01  1.66594395309E+01  1.70811752505E+01  1.75135872607E+01
  1.79569458330E+01  1.84115280810E+01  1.88776181334E+01  1.93555073117E+01
  1.98454943121E+01  2.03478853925E+01  2.08629945636E+01  2.13911437855E+01
  2.19326631686E+01  2.24878911801E+01  2.30571748557E+01  2.36408700161E+01
  2.42393414899E+01  2.48529633411E+01  2.54821191035E+01  2.61272020198E+01
  2.67886152879E+01  2.74667723126E+01  2.81620969641E+01  2.88750238430E+01
  2.96059985517E+01  3.03554779733E+01  3.11239305567E+01  3.19118366100E+01
  3.27196885999E+01  3.35479914603E+01  3.43972629075E+01  3.52680337637E+01
  3.61608482891E+01  3.70762645218E+01  3.80148546268E+01  3.89772052534E+01
  3.99639179021E+01  4.09756093004E+01  4.20129117884E+01  4.30764737139E+01
  4.41669598377E+01  4.52850517492E+01  4.64314482922E+01  4.76068660019E+01
  4.88120395525E+01  5.00477222168E+01  5.13146863367E+01  5.26137238060E+01
  5.39456465654E+01  5.53112871099E+01  5.67114990095E+01  5.81471574420E+01
  5.96191597408E+01
  </PP_R>
  <PP_RAB>
  4.55940982777E-07  4.67483183708E-07  4.79317576847E-07  4.91451559074E-07
  5.03892714524E-07  5.16648819324E-07  5.29727846454E-07  5.43137970732E-07
  5.56887573922E-07  5.70985249975E-07  5.85439810396E-07  6.00260289756E-07
  6.15455951337E-07  6.31036292922E-07  6.47011052733E-07  6.63390215513E-07
  6.80184018774E-07  6.97402959188E-07  7.15057799154E-07  7.33159573521E-07
  7.51719596489E-07  7.70749468674E-07  7.90261084368E-07  8.10266638965E-07
  8.30778636587E-07  8.51809897901E-07  8.73373568131E-07  8.95483125271E-07
  9.18152388514E-07  9.41395526889E-07  9.65227068114E-07  9.89661907677E-07
  1.01471531815E-06  1.04040295872E-06  1.06674088502E-06  1.09374555909E-06
  1.12143385974E-06  1.14982309306E-06  1.17893100325E-06  1.20877578368E-06
  1.23937608833E-06  1.27075104338E-06  1.30292025920E-06  1.33590384260E-06
  1.36972240938E-06  1.40439709726E-06  1.43994957904E-06  1.47640207619E-06
  1.51377737269E-06  1.55209882932E-06  1.59139039825E-06  1.63167663799E-06
  1.67298272874E-06  1.71533448815E-06  1.75875838746E-06  1.80328156801E-06
  1.84893185824E-06  1.89573779107E-06  1.94372862174E-06  1.99293434606E-06
  2.04338571923E-06  2.09511427499E-06  2.14815234538E-06  2.20253308090E-06
  2.25829047131E-06  2.31545936677E-06  2.37407549971E-06  2.43417550711E-06
  2.49579695346E-06  2.55897835414E-06  2.62375919959E-06  2.69017997996E-06
  2.75828221038E-06  2.82810845698E-06  2.89970236342E-06  2.97310867824E-06
  3.04837328276E-06  3.12554321981E-06  3.20466672313E-06  3.28579324746E-06
  3.36897349954E-06  3.45425946973E-06  3.54170446453E-06  3.63136313991E-06
  3.72329153546E-06  3.81754710943E-06  3.91418877461E-06  4.01327693520E-06
  4.11487352451E-06  4.21904204373E-06  4.32584760156E-06  4.43535695496E-06
  4.54763855085E-06  4.66276256886E-06  4.78080096527E-06  4.90182751791E-06
  5.02591787232E-06  5.15314958900E-06  5.28360219193E-06  5.41735721822E-06
  5.55449826912E-06  5.69511106226E-06  5.83928348520E-06  5.98710565040E-06
  6.13866995153E-06  6.29407112122E-06  6.45340629024E-06  6.61677504827E-06
  6.78427950610E-06  6.95602435947E-06  7.13211695450E-06  7.31266735480E-06
  7.49778841024E-06  7.68759582751E-06  7.88220824243E-06  8.08174729408E-06
  8.28633770088E-06  8.49610733848E-06  8.71118731975E-06  8.93171207666E-06
  9.15781944437E-06  9.38965074734E-06  9.62735088769E-06  9.87106843575E-06
  1.01209557229E-05  1.03771689368E-05  1.06398682192E-05  1.09092177655E-05
  1.11853859281E-05  1.14685453210E-05  1.17588729280E-05  1.20565502134E-05
  1.23617632352E-05  1.26747027614E-05  1.29955643894E-05  1.33245486682E-05
  1.36618612236E-05  1.40077128871E-05  1.43623198271E-05  1.47259036846E-05
  1.50986917112E-05  1.54809169116E-05  1.58728181890E-05  1.62746404946E-05
  1.66866349802E-05  1.71090591558E-05  1.75421770504E-05  1.79862593767E-05
  1.84415837006E-05  1.89084346147E-05  1.93871039159E-05  1.98778907881E-05
  2.03811019892E-05  2.08970520425E-05  2.14260634335E-05  2.19684668117E-05
  2.25246011968E-05  2.30948141908E-05  2.36794621956E-05  2.42789106350E-05
  2.48935341839E-05  2.55237170021E-05  2.61698529742E-05  2.68323459564E-05
  2.75116100282E-05  2.82080697519E-05  2.89221604374E-05  2.96543284147E-05
  3.04050313126E-05  3.11747383448E-05  3.19639306034E-05  3.27731013590E-05
  3.36027563699E-05  3.44534141973E-05  3.53256065302E-05  3.62198785171E-05
  3.71367891072E-05  3.80769113993E-05  3.90408330006E-05  4.00291563934E-05
  4.10424993119E-05  4.20814951287E-05  4.31467932497E-05  4.42390595210E-05
  4.53589766447E-05  4.65072446053E-05  4.76845811078E-05  4.88917220257E-05
  5.01294218614E-05  5.13984542176E-05  5.26996122809E-05  5.40337093174E-05
  5.54015791812E-05  5.68040768354E-05  5.82420788867E-05  5.97164841334E-05
  6.12282141265E-05  6.27782137466E-05  6.43674517939E-05  6.59969215939E-05
  6.76676416183E-05  6.93806561215E-05  7.11370357933E-05  7.29378784281E-05
  7.47843096113E-05  7.66774834225E-05  7.86185831568E-05  8.06088220649E-05
  8.26494441108E-05  8.47417247497E-05  8.68869717252E-05  8.90865258864E-05
  9.13417620264E-05  9.36540897410E-05  9.60249543104E-05  9.84558376021E-05
  1.00948258997E-04  1.03503776341E-04  1.06123986913E-04  1.08810528433E-04
  1.11565080074E-04  1.14389363523E-04  1.17285144047E-04  1.20254231604E-04
  1.23298481971E-04  1.26419797902E-04  1.29620130323E-04  1.32901479544E-04
  1.36265896517E-04  1.39715484111E-04  1.43252398430E-04  1.46878850162E-04
  1.50597105956E-04  1.54409489844E-04  1.58318384690E-04  1.62326233679E-04
  1.66435541849E-04  1.70648877650E-04  1.74968874556E-04  1.79398232703E-04
  1.83939720586E-04  1.88596176782E-04  1.93370511727E-04  1.98265709537E-04
  2.03284829870E-04  2.08431009839E-04  2.13707465974E-04  2.19117496232E-04
  2.24664482059E-04  2.30351890499E-04  2.36183276371E-04  2.42162284478E-04
  2.48292651896E-04  2.54578210304E-04  2.61022888381E-04  2.67630714259E-04
  2.74405818047E-04  2.81352434403E-04  2.88474905190E-04  2.95777682183E-04
  3.03265329856E-04  3.10942528233E-04  3.18814075811E-04  3.26884892565E-04
  3.35160023018E-04  3.43644639395E-04  3.52344044859E-04  3.61263676821E-04
  3.70409110341E-04  3.79786061612E-04  3.89400391536E-04  3.99258109380E-04
  4.09365376539E-04  4.19728510385E-04  4.30353988213E-04  4.41248451292E-04
  4.52418709018E-04  4.63871743164E-04  4.75614712250E-04  4.87654956014E-04
  5.00000000000E-04  5.12657560262E-04  5.25635548188E-04  5.38942075442E-04
  5.52585459038E-04  5.66574226533E-04  5.80917121364E-04  5.95623108306E-04
  6.10701379080E-04  6.26161358096E-04  6.42012708344E-04  6.58265337434E-04
  6.74929403788E-04  6.92015322990E-04  7.09533774297E-04  7.27495707309E-04
  7.45912348821E-04  7.64795209832E-04  7.84156092745E-04  8.04007098743E-04
  8.24360635350E-04  8.45229424190E-04  8.66626508934E-04  8.88565263457E-04
  9.11059400195E-04  9.34122978716E-04  9.57770414507E-04  9.82016487985E-04
  1.00687635374E-03  1.03236554998E-03  1.05850000831E-03  1.08529606359E-03
  1.11277046425E-03  1.14094038266E-03  1.16982342596E-03  1.19943764698E-03
  1.22980155558E-03  1.26093413018E-03  1.29285482966E-03  1.32558360549E-03
  1.35914091423E-03  1.39354773028E-03  1.42882555903E-03  1.46499645027E-03
  1.50208301197E-03  1.54010842446E-03  1.57909645484E-03  1.61907147192E-03
  1.66005846137E-03  1.70208304140E-03  1.74517147873E-03  1.78935070505E-03
  1.83464833381E-03  1.88109267750E-03  1.92871276535E-03  1.97753836146E-03
  2.02759998342E-03  2.07892892138E-03  2.13155725758E-03  2.18551788646E-03
  2.24084453517E-03  2.29757178465E-03  2.35573509130E-03  2.41537080906E-03
  2.47651621220E-03  2.53920951859E-03  2.60348991359E-03  2.66939757454E-03
  2.73697369586E-03  2.80626051485E-03  2.87730133800E-03  2.95014056816E-03
  3.02482373221E-03  3.10139750955E-03  3.17990976130E-03  3.26040956017E-03
  3.34294722114E-03  3.42757433295E-03  3.51434379029E-03  3.60330982691E-03
  3.69452804947E-03  3.78805547232E-03  3.88395055315E-03  3.98227322952E-03
  4.08308495628E-03  4.18644874406E-03  4.29242919859E-03  4.40109256109E-03
  4.51250674972E-03  4.62674140195E-03  4.74386791818E-03  4.86395950628E-03
  4.98709122741E-03  5.11334004290E-03  5.24278486236E-03  5.37550659304E-03
  5.51158819032E-03  5.65111470964E-03  5.79417335961E-03  5.94085355655E-03
  6.09124698035E-03  6.24544763180E-03  6.40355189133E-03  6.56565857925E-03
  6.73186901750E-03  6.90228709303E-03  7.07701932269E-03  7.25617491980E-03
  7.43986586244E-03  7.62820696343E-03  7.82131594209E-03  8.01931349783E-03
  8.22232338555E-03  8.43047249304E-03  8.64389092028E-03  8.86271206073E-03
  9.08707268472E-03  9.31711302495E-03  9.55297686412E-03  9.79481162480E-03
  1.00427684616E-02  1.02970023556E-02  1.05576722113E-02  1.08249409558E-02
  1.10989756407E-02  1.13799475468E-02  1.16680322905E-02  1.19634099342E-02
  1.22662650986E-02  1.25767870779E-02  1.28951699586E-02  1.32216127403E-02
  1.35563194603E-02  1.38994993213E-02  1.42513668219E-02  1.46121418906E-02
  1.49820500237E-02  1.53613224258E-02  1.57501961544E-02  1.61489142683E-02
  1.65577259793E-02  1.69768868081E-02  1.74066587438E-02  1.78473104078E-02
  1.82991172218E-02  1.87623615798E-02  1.92373330245E-02  1.97243284286E-02
  2.02236521800E-02  2.07356163724E-02  2.12605410000E-02  2.17987541579E-02
  2.23505922467E-02  2.29164001832E-02  2.34965316158E-02  2.40913491455E-02
  2.47012245528E-02  2.53265390294E-02  2.59676834174E-02  2.66250584529E-02
  2.72990750166E-02  2.79901543908E-02  2.86987285227E-02  2.94252402942E-02
  3.01701437987E-02  3.09339046252E-02  3.17170001491E-02  3.25199198305E-02
  3.33431655205E-02  3.41872517743E-02  3.50527061733E-02  3.59400696548E-02
  3.68498968498E-02  3.77827564299E-02  3.87392314626E-02  3.97199197761E-02
  4.07254343325E-02  4.17564036110E-02  4.28134720011E-02  4.38973002049E-02
  4.50085656503E-02  4.61479629143E-02  4.73162041575E-02  4.85140195685E-02
  4.97421578210E-02  5.10013865413E-02  5.22924927886E-02  5.36162835460E-02
  5.49735862261E-02  5.63652491870E-02  5.77921422636E-02  5.92551573104E-02
  6.07552087594E-02  6.22932341916E-02  6.38701949230E-02  6.54870766054E-02
  6.71448898425E-02  6.88446708214E-02  7.05874819607E-02  7.23744125741E-02
  7.42065795513E-02  7.60851280563E-02  7.80112322432E-02  7.99860959897E-02
  8.20109536500E-02  8.40870708259E-02  8.62157451584E-02  8.83983071382E-02
  9.06361209376E-02  9.29305852630E-02  9.52831342293E-02  9.76952382563E-02
  1.00168404987E-01  1.02704180232E-01  1.05304148933E-01  1.07969936155E-01
  1.10703208102E-01  1.13505673158E-01  1.16379082954E-01  1.19325233465E-01
  1.22345966132E-01  1.25443169010E-01  1.28618777953E-01  1.31874777818E-01
  1.35213203713E-01  1.38636142262E-01  1.42145732912E-01  1.45744169273E-01
  1.49433700484E-01  1.53216632622E-01  1.57095330143E-01  1.61072217359E-01
  1.65149779955E-01  1.69330566539E-01  1.73617190239E-01  1.78012330335E-01
  1.82518733933E-01  1.87139217680E-01  1.91876669531E-01  1.96734050546E-01
  2.01714396746E-01  2.06820821012E-01  2.12056515022E-01  2.17424751258E-01
  2.22928885041E-01  2.28572356634E-01  2.34358693391E-01  2.40291511960E-01
  2.46374520547E-01  2.52611521228E-01  2.59006412334E-01  2.65563190879E-01
  2.72285955063E-01  2.79178906832E-01  2.86246354507E-01  2.93492715471E-01
  3.00922518936E-01  3.08540408771E-01  3.16351146406E-01  3.24359613805E-01
  3.32570816522E-01  3.40989886825E-01  3.49622086908E-01  3.58472812176E-01
  3.67547594621E-01  3.76852106277E-01  3.86392162768E-01  3.96173726938E-01
  4.06202912584E-01  4.16485988273E-01  4.27029381263E-01  4.37839681517E-01
  4.48923645825E-01  4.60288202026E-01  4.71940453336E-01  4.83887682792E-01
  4.96137357803E-01  5.08697134812E-01  5.21574864090E-01  5.34778594637E-01
  5.48316579214E-01  5.62197279503E-01  5.76429371392E-01  5.91021750402E-01
  6.05983537246E-01  6.21324083527E-01  6.37052977587E-01  6.53180050495E-01
  6.69715382197E-01  6.86669307815E-01  7.04052424102E-01  7.21875596074E-01
  7.40149963792E-01  7.58886949332E-01  7.78098263919E-01  7.97795915250E-01
  8.17992214998E-01  8.38699786509E-01  8.59931572688E-01  8.81700844093E-01
  9.04021207228E-01  9.26906613046E-01  9.50371365670E-01  9.74430131335E-01
  9.99097947552E-01  1.02439023251E+00  1.05032279471E+00  1.07691184285E+00
  1.10417399594E+00  1.13212629373E+00  1.16078620731E+00  1.19017165005E+00
  1.22030098881E+00  1.25119305542E+00  1.28286715842E+00  1.31534309515E+00
  1.34864116413E+00  1.38278217775E+00  1.41778747524E+00  1.45367893605E+00
  1.49047899352E+00
  </PP_RAB>
</PP_MESH>


<PP_LOCAL>
 -9.29811352370E-01 -9.29811352430E-01 -9.29811352500E-01 -9.29811352570E-01
 -9.29811352640E-01 -9.29811352710E-01 -9.29811352790E-01 -9.29811352880E-01
 -9.29811352960E-01 -9.29811353050E-01 -9.29811353150E-01 -9.29811353250E-01
 -9.29811353360E-01 -9.29811353470E-01 -9.29811353590E-01 -9.29811353710E-01
 -9.29811353840E-01 -9.29811353980E-01 -9.29811354120E-01 -9.29811354280E-01
 -9.29811354430E-01 -9.29811354600E-01 -9.29811354780E-01 -9.29811354960E-01
 -9.29811355160E-01 -9.29811355360E-01 -9.29811355580E-01 -9.29811355800E-01
 -9.29811356040E-01 -9.29811356290E-01 -9.29811356550E-01 -9.29811356830E-01
 -9.29811357120E-01 -9.29811357420E-01 -9.29811357740E-01 -9.29811358080E-01
 -9.29811358430E-01 -9.29811358810E-01 -9.29811359200E-01 -9.29811359610E-01
 -9.29811360040E-01 -9.29811360500E-01 -9.29811360970E-01 -9.29811361480E-01
 -9.29811362000E-01 -9.29811362560E-01 -9.29811363140E-01 -9.29811363760E-01
 -9.29811364400E-01 -9.29811365080E-01 -9.29811365790E-01 -9.29811366540E-01
 -9.29811367330E-01 -9.29811368160E-01 -9.29811369030E-01 -9.29811369950E-01
 -9.29811370910E-01 -9.29811371920E-01 -9.29811372990E-01 -9.29811374110E-01
 -9.29811375280E-01 -9.29811376520E-01 -9.29811377820E-01 -9.29811379180E-01
 -9.29811380620E-01 -9.29811382130E-01 -9.29811383720E-01 -9.29811385380E-01
 -9.29811387140E-01 -9.29811388980E-01 -9.29811390920E-01 -9.29811392960E-01
 -9.29811395100E-01 -9.29811397350E-01 -9.29811399720E-01 -9.29811402210E-01
 -9.29811404830E-01 -9.29811407580E-01 -9.29811410470E-01 -9.29811413510E-01
 -9.29811416710E-01 -9.29811420070E-01 -9.29811423600E-01 -9.29811427310E-01
 -9.29811431220E-01 -9.29811435320E-01 -9.29811439640E-01 -9.29811444170E-01
 -9.29811448940E-01 -9.29811453950E-01 -9.29811459220E-01 -9.29811464760E-01
 -9.29811470590E-01 -9.29811476710E-01 -9.29811483140E-01 -9.29811489910E-01
 -9.29811497020E-01 -9.29811504500E-01 -9.29811512360E-01 -9.29811520630E-01
 -9.29811529320E-01 -9.29811538450E-01 -9.29811548050E-01 -9.29811558150E-01
 -9.29811568760E-01 -9.29811579910E-01 -9.29811591640E-01 -9.29811603970E-01
 -9.29811616930E-01 -9.29811630560E-01 -9.29811644880E-01 -9.29811659940E-01
 -9.29811675770E-01 -9.29811692410E-01 -9.29811709910E-01 -9.29811728300E-01
 -9.29811747640E-01 -9.29811767970E-01 -9.29811789340E-01 -9.29811811800E-01
 -9.29811835420E-01 -9.29811860250E-01 -9.29811886350E-01 -9.29811913790E-01
 -9.29811942630E-01 -9.29811972960E-01 -9.29812004840E-01 -9.29812038350E-01
 -9.29812073580E-01 -9.29812110620E-01 -9.29812149560E-01 -9.29812190490E-01
 -9.29812233530E-01 -9.29812278770E-01 -9.29812326320E-01 -9.29812376320E-01
 -9.29812428880E-01 -9.29812484140E-01 -9.29812542230E-01 -9.29812603290E-01
 -9.29812667490E-01 -9.29812734980E-01 -9.29812805930E-01 -9.29812880520E-01
 -9.29812958930E-01 -9.29813041360E-01 -9.29813128020E-01 -9.29813219120E-01
 -9.29813314890E-01 -9.29813415570E-01 -9.29813521410E-01 -9.29813632680E-01
 -9.29813749660E-01 -9.29813872630E-01 -9.29814001910E-01 -9.29814137820E-01
 -9.29814280690E-01 -9.29814430890E-01 -9.29814588790E-01 -9.29814754790E-01
 -9.29814929290E-01 -9.29815112750E-01 -9.29815305610E-01 -9.29815508360E-01
 -9.29815721500E-01 -9.29815945570E-01 -9.29816181130E-01 -9.29816428770E-01
 -9.29816689100E-01 -9.29816962780E-01 -9.29817250500E-01 -9.29817552960E-01
 -9.29817870930E-01 -9.29818205210E-01 -9.29818556620E-01 -9.29818926050E-01
 -9.29819314420E-01 -9.29819722710E-01 -9.29820151920E-01 -9.29820603150E-01
 -9.29821077500E-01 -9.29821576180E-01 -9.29822100430E-01 -9.29822651550E-01
 -9.29823230930E-01 -9.29823840020E-01 -9.29824480330E-01 -9.29825153480E-01
 -9.29825861140E-01 -9.29826605070E-01 -9.29827387160E-01 -9.29828209340E-01
 -9.29829073670E-01 -9.29829982320E-01 -9.29830937550E-01 -9.29831941760E-01
 -9.29832997460E-01 -9.29834107280E-01 -9.29835274000E-01 -9.29836500550E-01
 -9.29837789970E-01 -9.29839145510E-01 -9.29840570550E-01 -9.29842068650E-01
 -9.29843643550E-01 -9.29845299210E-01 -9.29847039740E-01 -9.29848869520E-01
 -9.29850793110E-01 -9.29852815320E-01 -9.29854941210E-01 -9.29857176090E-01
 -9.29859525560E-01 -9.29861995480E-01 -9.29864592040E-01 -9.29867321720E-01
 -9.29870191350E-01 -9.29873208110E-01 -9.29876379530E-01 -9.29879713550E-01
 -9.29883218510E-01 -9.29886903160E-01 -9.29890776720E-01 -9.29894848870E-01
 -9.29899129800E-01 -9.29903630200E-01 -9.29908361340E-01 -9.29913335040E-01
 -9.29918563730E-01 -9.29924060480E-01 -9.29929839050E-01 -9.29935913870E-01
 -9.29942300140E-01 -9.29949013810E-01 -9.29956071680E-01 -9.29963491390E-01
 -9.29971291490E-01 -9.29979491470E-01 -9.29988111850E-01 -9.29997174160E-01
 -9.30006701060E-01 -9.30016716370E-01 -9.30027245120E-01 -9.30038313640E-01
 -9.30049949590E-01 -9.30062182050E-01 -9.30075041620E-01 -9.30088560420E-01
 -9.30102772240E-01 -9.30117712620E-01 -9.30133418900E-01 -9.30149930330E-01
 -9.30167288170E-01 -9.30185535810E-01 -9.30204718860E-01 -9.30224885250E-01
 -9.30246085390E-01 -9.30268372250E-01 -9.30291801520E-01 -9.30316431750E-01
 -9.30342324490E-01 -9.30369544440E-01 -9.30398159590E-01 -9.30428241450E-01
 -9.30459865180E-01 -9.30493109770E-01 -9.30528058270E-01 -9.30564797990E-01
 -9.30603420700E-01 -9.30644022870E-01 -9.30686705900E-01 -9.30731576400E-01
 -9.30778746420E-01 -9.30828333740E-01 -9.30880462190E-01 -9.30935261910E-01
 -9.30992869730E-01 -9.31053429440E-01 -9.31117092220E-01 -9.31184016970E-01
 -9.31254370700E-01 -9.31328328990E-01 -9.31406076370E-01 -9.31487806810E-01
 -9.31573724220E-01 -9.31664042880E-01 -9.31758988060E-01 -9.31858796520E-01