<PP_INFO>
Generated using ld1 code (maybe, or maybe not)                                  
Author: unknown    Generation date: as well                                     
Info: automatically converted from PWSCF format                                 
    0        The Pseudo was generated with a Non-Relativistic Calculation
nl pn  l   occ               Rcut            Rcut US             E pseu
*S  0  0  2.00      0.00000000000      0.00000000000      0.00000000000
*P  0  1  5.00      0.00000000000      0.00000000000      0.00000000000
</PP_INFO>


<PP_HEADER>
   0                   Version Number
  F                    Element
   NC                  Norm - Conserving pseudopotential
    F                  Nonlinear Core Correction
SLA  PZ   NOGX NOGC    PZ   Exchange-Correlation functional
    7.00000000000      Z valence
    0.00000000000      Total energy
  0.0000000  0.0000000 Suggested cutoff for wfc and rho
    1                  Max angular momentum component
 1133                  Number of points in mesh
    2    1             Number of Wavefunctions, Number of Projectors
 Wavefunctions         nl  l   occ
                       *S  0  2.00
                       *P  1  5.00
</PP_HEADER>


<PP_MESH>
  <PP_R>
  4.80749850560E-05  4.87040398588E-05  4.93413257603E-05  4.99869504632E-05
  5.06410230797E-05  5.13036541497E-05  5.19749556593E-05  5.26550410601E-05
  5.33440252882E-05  5.40420247836E-05  5.47491575097E-05  5.54655429738E-05
  5.61913022467E-05  5.69265579833E-05  5.76714344438E-05  5.84260575139E-05
  5.91905547269E-05  5.99650552844E-05  6.07496900790E-05  6.15445917159E-05
  6.23498945352E-05  6.31657346351E-05  6.39922498945E-05  6.48295799964E-05
  6.56778664516E-05  6.65372526226E-05  6.74078837477E-05  6.82899069655E-05
  6.91834713402E-05  7.00887278862E-05  7.10058295940E-05  7.19349314560E-05
  7.28761904926E-05  7.38297657789E-05  7.47958184713E-05  7.57745118351E-05
  7.67660112717E-05  7.77704843469E-05  7.87881008191E-05  7.98190326679E-05
  8.08634541231E-05  8.19215416946E-05  8.29934742016E-05  8.40794328032E-05
  8.51796010291E-05  8.62941648104E-05  8.74233125108E-05  8.85672349592E-05
  8.97261254811E-05  9.09001799317E-05  9.20895967291E-05  9.32945768875E-05
  9.45153240515E-05  9.57520445301E-05  9.70049473323E-05  9.82742442013E-05
  9.95601496516E-05  1.00862881004E-04  1.02182658424E-04  1.03519704956E-04
  1.04874246564E-04  1.06246512170E-04  1.07636733689E-04  1.09045146072E-04
  1.10471987345E-04  1.11917498646E-04  1.13381924271E-04  1.14865511711E-04
  1.16368511696E-04  1.17891178237E-04  1.19433768667E-04  1.20996543688E-04
  1.22579767413E-04  1.24183707411E-04  1.25808634751E-04  1.27454824049E-04
  1.29122553516E-04  1.30812105002E-04  1.32523764045E-04  1.34257819920E-04
  1.36014565685E-04  1.37794298236E-04  1.39597318352E-04  1.41423930746E-04
  1.43274444121E-04  1.45149171219E-04  1.47048428871E-04  1.48972538059E-04
  1.50921823960E-04  1.52896616008E-04  1.54897247948E-04  1.56924057892E-04
  1.58977388375E-04  1.61057586415E-04  1.63165003570E-04  1.65299996000E-04
  1.67462924522E-04  1.69654154677E-04  1.71874056788E-04  1.74123006024E-04
  1.76401382462E-04  1.78709571154E-04  1.81047962188E-04  1.83416950759E-04
  1.85816937231E-04  1.88248327208E-04  1.90711531600E-04  1.93206966695E-04
  1.95735054228E-04  1.98296221450E-04  2.00890901205E-04  2.03519532001E-04
  2.06182558083E-04  2.08880429507E-04  2.11613602221E-04  2.14382538138E-04
  2.17187705214E-04  2.20029577529E-04  2.22908635366E-04  2.25825365293E-04
  2.28780260244E-04  2.31773819604E-04  2.34806549291E-04  2.37878961844E-04
  2.40991576507E-04  2.44144919321E-04  2.47339523207E-04  2.50575928061E-04
  2.53854680843E-04  2.57176335670E-04  2.60541453911E-04  2.63950604277E-04
  2.67404362923E-04  2.70903313544E-04  2.74448047469E-04  2.78039163767E-04
  2.81677269346E-04  2.85362979053E-04  2.89096915784E-04  2.92879710581E-04
  2.96712002746E-04  3.00594439946E-04  3.04527678322E-04  3.08512382600E-04
  3.12549226205E-04  3.16638891374E-04  3.20782069268E-04  3.24979460096E-04
  3.29231773226E-04  3.33539727309E-04  3.37904050400E-04  3.42325480080E-04
  3.46804763581E-04  3.51342657912E-04  3.55939929989E-04  3.60597356761E-04
  3.65315725344E-04  3.70095833155E-04  3.74938488042E-04  3.79844508426E-04
  3.84814723436E-04  3.89849973051E-04  3.94951108238E-04  4.00118991103E-04
  4.05354495030E-04  4.10658504831E-04  4.16031916897E-04  4.21475639347E-04
  4.26990592183E-04  4.32577707446E-04  4.38237929371E-04  4.43972214548E-04
  4.49781532087E-04  4.55666863775E-04  4.61629204248E-04  4.67669561155E-04
  4.73788955331E-04  4.79988420968E-04  4.86269005791E-04  4.92631771233E-04
  4.99077792617E-04  5.05608159335E-04  5.12223975036E-04  5.18926357808E-04
  5.25716440369E-04  5.32595370261E-04  5.39564310037E-04  5.46624437466E-04
  5.53776945726E-04  5.61023043607E-04  5.68363955719E-04  5.75800922691E-04
  5.83335201391E-04  5.90968065127E-04  5.98700803873E-04  6.06534724480E-04
  6.14471150899E-04  6.22511424405E-04  6.30656903823E-04  6.38908965759E-04
  6.47269004831E-04  6.55738433906E-04  6.64318684336E-04  6.73011206205E-04
  6.81817468570E-04  6.90738959710E-04  6.99777187378E-04  7.08933679056E-04
  7.18209982213E-04  7.27607664567E-04  7.37128314348E-04  7.46773540568E-04
  7.56544973295E-04  7.66444263922E-04  7.76473085454E-04  7.86633132786E-04
  7.96926122989E-04  8.07353795604E-04  8.17917912932E-04  8.28620260334E-04
  8.39462646532E-04  8.50446903915E-04  8.61574888849E-04  8.72848481991E-04
  8.84269588603E-04  8.95840138880E-04  9.07562088273E-04  9.19437417818E-04
  9.31468134476E-04  9.43656271466E-04  9.56003888611E-04  9.68513072689E-04
  9.81185937782E-04  9.94024625633E-04  1.00703130601E-03  1.02020817708E-03
  1.03355746575E-03  1.04708142810E-03  1.06078234970E-03  1.07466254605E-03
  1.08872436292E-03  1.10297017680E-03  1.11740239526E-03  1.13202345739E-03
  1.14683583418E-03  1.16184202896E-03  1.17704457780E-03  1.19244604998E-03
  1.20804904837E-03  1.22385620993E-03  1.23987020611E-03  1.25609374330E-03
  1.27252956332E-03  1.28918044387E-03  1.30604919898E-03  1.32313867951E-03
  1.34045177363E-03  1.35799140729E-03  1.37576054474E-03  1.39376218898E-03
  1.41199938236E-03  1.43047520699E-03  1.44919278533E-03  1.46815528071E-03
  1.48736589782E-03  1.50682788331E-03  1.52654452629E-03  1.54651915894E-03
  1.56675515700E-03  1.58725594042E-03  1.60802497386E-03  1.62906576736E-03
  1.65038187684E-03  1.67197690480E-03  1.69385450082E-03  1.71601836229E-03
  1.73847223495E-03  1.76121991355E-03  1.78426524251E-03  1.80761211655E-03
  1.83126448133E-03  1.85522633417E-03  1.87950172467E-03  1.90409475544E-03
  1.92900958276E-03  1.95425041729E-03  1.97982152478E-03  2.00572722683E-03
  2.03197190156E-03  2.05855998437E-03  2.08549596871E-03  2.11278440684E-03
  2.14042991057E-03  2.16843715204E-03  2.19681086455E-03  2.22555584333E-03
  2.25467694634E-03  2.28417909512E-03  2.31406727561E-03  2.34434653897E-03
  2.37502200248E-03  2.40609885036E-03  2.43758233467E-03  2.46947777620E-03
  2.50179056535E-03  2.53452616306E-03  2.56769010172E-03  2.60128798612E-03
  2.63532549439E-03  2.66980837893E-03  2.70474246745E-03  2.74013366387E-03
  2.77598794941E-03  2.81231138352E-03  2.84911010495E-03  2.88639033277E-03
  2.92415836742E-03  2.96242059180E-03  3.00118347231E-03  3.04045355996E-03
  3.08023749151E-03  3.12054199052E-03  3.16137386856E-03  3.20274002630E-03
  3.24464745474E-03  3.28710323631E-03  3.33011454616E-03  3.37368865329E-03
  3.41783292183E-03  3.46255481227E-03  3.50786188271E-03  3.55376179016E-03
  3.60026229182E-03  3.64737124637E-03  3.69509661534E-03  3.74344646443E-03
  3.79242896489E-03  3.84205239486E-03  3.89232514084E-03  3.94325569903E-03
  3.99485267682E-03  4.04712479421E-03  4.10008088533E-03  4.15372989988E-03
  4.20808090467E-03  4.26314308515E-03  4.31892574695E-03  4.37543831749E-03
  4.43269034751E-03  4.49069151276E-03  4.54945161556E-03  4.60898058651E-03
  4.66928848615E-03  4.73038550665E-03  4.79228197357E-03  4.85498834754E-03
  4.91851522610E-03  4.98287334544E-03  5.04807358224E-03  5.11412695548E-03
  5.18104462836E-03  5.24883791011E-03  5.31751825795E-03  5.38709727904E-03
  5.45758673239E-03  5.52899853089E-03  5.60134474330E-03  5.67463759630E-03
  5.74888947656E-03  5.82411293283E-03  5.90032067805E-03  5.97752559150E-03
  6.05574072100E-03  6.13497928510E-03  6.21525467530E-03  6.29658045834E-03
  6.37897037846E-03  6.46243835975E-03  6.54699850851E-03  6.63266511560E-03
  6.71945265888E-03  6.80737580565E-03  6.89644941513E-03  6.98668854098E-03
  7.07810843383E-03  7.17072454384E-03  7.26455252337E-03  7.35960822957E-03
  7.45590772707E-03  7.55346729073E-03  7.65230340833E-03  7.75243278343E-03
  7.85387233812E-03  7.95663921592E-03  8.06075078469E-03  8.16622463953E-03
  8.27307860577E-03  8.38133074198E-03  8.49099934304E-03  8.60210294320E-03
  8.71466031922E-03  8.82869049359E-03  8.94421273766E-03  9.06124657497E-03
  9.17981178451E-03  9.29992840410E-03  9.42161673373E-03  9.54489733900E-03
  9.66979105464E-03  9.79631898799E-03  9.92450252256E-03  1.00543633217E-02
  1.01859233321E-02  1.03192047879E-02  1.04542302138E-02  1.05910224295E-02
  1.07296045532E-02  1.08700000056E-02  1.10122325138E-02  1.11563261156E-02
  1.13023051631E-02  1.14501943270E-02  1.16000186010E-02  1.17518033058E-02
  1.19055740933E-02  1.20613569511E-02  1.22191782070E-02  1.23790645331E-02
  1.25410429505E-02  1.27051408341E-02  1.28713859167E-02  1.30398062942E-02
  1.32104304299E-02  1.33832871599E-02  1.35584056972E-02  1.37358156373E-02
  1.39155469630E-02  1.40976300493E-02  1.42820956686E-02  1.44689749960E-02
  1.46582996147E-02  1.48501015208E-02  1.50444131295E-02  1.52412672798E-02
  1.54406972406E-02  1.56427367159E-02  1.58474198510E-02  1.60547812377E-02
  1.62648559207E-02  1.64776794031E-02  1.66932876525E-02  1.69117171072E-02
  1.71330046824E-02  1.73571877761E-02  1.75843042759E-02  1.78143925650E-02
  1.80474915288E-02  1.82836405616E-02  1.85228795732E-02  1.87652489955E-02
  1.90107897896E-02  1.92595434524E-02  1.95115520239E-02  1.97668580941E-02
  2.00255048104E-02  2.02875358847E-02  2.05529956008E-02  2.08219288221E-02
  2.10943809989E-02  2.13703981763E-02  2.16500270018E-02  2.19333147335E-02
  2.22203092475E-02  2.25110590467E-02  2.28056132685E-02  2.31040216932E-02
  2.34063347525E-02  2.37126035381E-02  2.40228798102E-02  2.43372160061E-02
  2.46556652494E-02  2.49782813589E-02  2.53051188574E-02  2.56362329811E-02
  2.59716796893E-02  2.63115156731E-02  2.66557983658E-02  2.70045859517E-02
  2.73579373770E-02  2.77159123588E-02  2.80785713958E-02  2.84459757782E-02
  2.88181875982E-02  2.91952697604E-02  2.95772859928E-02  2.99643008569E-02
  3.03563797591E-02  3.07535889618E-02  3.11559955942E-02  3.15636676640E-02
  3.19766740688E-02  3.23950846076E-02  3.28189699928E-02  3.32484018620E-02
  3.36834527903E-02  3.41241963023E-02  3.45707068846E-02  3.50230599988E-02
  3.54813320934E-02  3.59456006176E-02  3.64159440338E-02  3.68924418313E-02
  3.73751745392E-02  3.78642237406E-02  3.83596720860E-02  3.88616033072E-02
  3.93701022318E-02  3.98852547975E-02  4.04071480661E-02  4.09358702389E-02
  4.14715106713E-02  4.20141598876E-02  4.25639095970E-02  4.31208527084E-02
  4.36850833465E-02  4.42566968677E-02  4.48357898760E-02  4.54224602395E-02
  4.60168071069E-02  4.66189309242E-02  4.72289334518E-02  4.78469177816E-02
  4.84729883543E-02  4.91072509775E-02  4.97498128429E-02  5.04007825451E-02
  5.10602700996E-02  5.17283869612E-02  5.24052460433E-02  5.30909617367E-02
  5.37856499291E-02  5.44894280242E-02  5.52024149625E-02  5.59247312402E-02
  5.66564989306E-02  5.73978417042E-02  5.81488848496E-02  5.89097552950E-02
  5.96805816292E-02  6.04614941238E-02  6.12526247548E-02  6.20541072251E-02
  6.28660769873E-02  6.36886712661E-02  6.45220290820E-02  6.53662912743E-02
  6.62216005254E-02  6.70881013846E-02  6.79659402927E-02  6.88552656064E-02
  6.97562276239E-02  7.06689786099E-02  7.15936728214E-02  7.25304665341E-02
  7.34795180682E-02  7.44409878158E-02  7.54150382675E-02  7.64018340402E-02
  7.74015419046E-02  7.84143308139E-02  7.94403719317E-02  8.04798386615E-02
  8.15329066755E-02  8.25997539448E-02  8.36805607691E-02  8.47755098074E-02
  8.58847861086E-02  8.70085771430E-02  8.81470728341E-02  8.93004655903E-02
  9.04689503377E-02  9.16527245531E-02  9.28519882970E-02  9.40669442480E-02
  9.52977977364E-02  9.65447567795E-02  9.78080321162E-02  9.90878372432E-02
  1.00384388450E-01  1.01697904858E-01  1.03028608454E-01  1.04376724130E-01
  1.05742479721E-01  1.07126106042E-01  1.08527836931E-01  1.09947909282E-01
  1.11386563091E-01  1.12844041495E-01  1.14320590810E-01  1.15816460577E-01
  1.17331903602E-01  1.18867175998E-01  1.20422537229E-01  1.21998250156E-01
  1.23594581077E-01  1.25211799777E-01  1.26850179569E-01  1.28509997343E-01
  1.30191533613E-01  1.31895072562E-01  1.33620902092E-01  1.35369313872E-01
  1.37140603388E-01  1.38935069993E-01  1.40753016956E-01  1.42594751513E-01
  1.44460584923E-01  1.46350832516E-01  1.48265813747E-01  1.50205852254E-01
  1.52171275907E-01  1.54162416868E-01  1.56179611645E-01  1.58223201148E-01
  1.60293530748E-01  1.62390950336E-01  1.64515814382E-01  1.66668481992E-01
  1.68849316972E-01  1.71058687888E-01  1.73296968130E-01  1.75564535972E-01
  1.77861774638E-01  1.80189072368E-01  1.82546822479E-01  1.84935423438E-01
  1.87355278924E-01  1.89806797898E-01  1.92290394672E-01  1.94806488981E-01
  1.97355506050E-01  1.99937876670E-01  2.02554037266E-01  2.05204429977E-01
  2.07889502725E-01  2.10609709294E-01  2.13365509404E-01  2.16157368794E-01
  2.18985759294E-01  2.21851158908E-01  2.24754051896E-01  2.27694928853E-01
  2.30674286796E-01  2.33692629242E-01  2.36750466298E-01  2.39848314747E-01
  2.42986698132E-01  2.46166146848E-01  2.49387198228E-01  2.52650396638E-01
  2.55956293566E-01  2.59305447717E-01  2.62698425106E-01  2.66135799154E-01
  2.69618150786E-01  2.73146068527E-01  2.76720148603E-01  2.80340995044E-01
  2.84009219779E-01  2.87725442749E-01  2.91490292003E-01  2.95304403811E-01
  2.99168422766E-01  3.03083001896E-01  3.07048802775E-01  3.11066495632E-01
  3.15136759467E-01  3.19260282165E-01  3.23437760611E-01  3.27669900807E-01
  3.31957417997E-01  3.36301036781E-01  3.40701491240E-01  3.45159525062E-01
  3.49675891666E-01  3.54251354327E-01  3.58886686310E-01  3.63582670998E-01
  3.68340102022E-01  3.73159783401E-01  3.78042529670E-01  3.82989166027E-01
  3.88000528465E-01  3.93077463916E-01  3.98220830393E-01  4.03431497139E-01
  4.08710344768E-01  4.14058265417E-01  4.19476162900E-01  4.24964952852E-01
  4.30525562892E-01  4.36158932778E-01  4.41866014561E-01  4.47647772752E-01
  4.53505184483E-01  4.59439239669E-01  4.65450941180E-01  4.71541305008E-01
  4.77711360438E-01  4.83962150226E-01  4.90294730769E-01  4.96710172288E-01
  5.03209559009E-01  5.09793989342E-01  5.16464576074E-01  5.23222446548E-01
  5.30068742861E-01  5.37004622052E-01  5.44031256304E-01  5.51149833132E-01
  5.58361555594E-01  5.65667642488E-01  5.73069328559E-01  5.80567864712E-01
  5.88164518215E-01  5.95860572921E-01  6.03657329483E-01  6.11556105570E-01
  6.19558236094E-01  6.27665073435E-01  6.35877987668E-01  6.44198366793E-01
  6.52627616976E-01  6.61167162780E-01  6.69818447407E-01  6.78582932947E-01
  6.87462100617E-01  6.96457451018E-01  7.05570504387E-01  7.14802800850E-01
  7.24155900687E-01  7.33631384596E-01  7.43230853954E-01  7.52955931096E-01
  7.62808259582E-01  7.72789504479E-01  7.82901352643E-01  7.93145512998E-01
  8.03523716832E-01  8.14037718088E-01  8.24689293655E-01  8.35480243675E-01
  8.46412391845E-01  8.57487585724E-01  8.68707697046E-01  8.80074622037E-01
  8.91590281733E-01  9.03256622308E-01  9.15075615403E-01  9.27049258455E-01
  9.39179575038E-01  9.51468615204E-01  9.63918455831E-01  9.76531200971E-01
  9.89308982209E-01  1.00225395902E+00  1.01536831913E+00  1.02865427891E+00
  1.04211408371E+00  1.05575000827E+00  1.06956435709E+00  1.08355946484E+00
  1.09773769671E+00  1.11210144887E+00  1.12665314882E+00  1.14139525583E+00
  1.15633026136E+00  1.17146068945E+00  1.18678909719E+00  1.20231807511E+00
  1.21805024765E+00  1.23398827358E+00  1.25013484646E+00  1.26649269511E+00
  1.28306458404E+00  1.29985331393E+00  1.31686172213E+00  1.33409268310E+00
  1.35154910890E+00  1.36923394972E+00  1.38715019434E+00  1.40530087064E+00
  1.42368904613E+00  1.44231782846E+00  1.46119036594E+00  1.48030984806E+00
  1.49967950608E+00  1.51930261350E+00  1.53918248667E+00  1.55932248535E+00
  1.57972601325E+00  1.60039651859E+00  1.62133749476E+00  1.64255248083E+00
  1.66404506217E+00  1.68581887109E+00  1.70787758741E+00  1.73022493911E+00
  1.75286470294E+00  1.77580070508E+00  1.79903682176E+00  1.82257697995E+00
  1.84642515798E+00  1.87058538627E+00  1.89506174793E+00  1.91985837954E+00
  1.94497947179E+00  1.97042927019E+00  1.99621207584E+00  2.02233224607E+00
  2.04879419527E+00  2.07560239556E+00  2.10276137760E+00  2.13027573131E+00
  2.15815010670E+00  2.18638921459E+00  2.21499782746E+00  2.24398078023E+00
  2.27334297110E+00  2.30308936234E+00  2.33322498116E+00  2.36375492056E+00
  2.39468434017E+00  2.42601846713E+00  2.45776259698E+00  2.48992209456E+00
  2.52250239491E+00  2.55550900416E+00  2.58894750052E+00  2.62282353516E+00
  2.65714283323E+00  2.69191119476E+00  2.72713449569E+00  2.76281868883E+00
  2.79896980492E+00  2.83559395356E+00  2.87269732433E+00  2.91028618778E+00
  2.94836689653E+00  2.98694588630E+00  3.02602967703E+00  3.06562487398E+00
  3.10573816883E+00  3.14637634082E+00  3.18754625791E+00  3.22925487789E+00
  3.27150924964E+00  3.31431651424E+00  3.35768390622E+00  3.40161875477E+00
  3.44612848498E+00  3.49122061911E+00  3.53690277784E+00  3.58318268155E+00
  3.63006815166E+00  3.67756711194E+00  3.72568758980E+00  3.77443771774E+00
  3.82382573463E+00  3.87385998718E+00  3.92454893128E+00  3.97590113349E+00
  4.02792527246E+00  4.08063014039E+00  4.13402464452E+00  4.18811780865E+00
  4.24291877467E+00  4.29843680405E+00  4.35468127949E+00  4.41166170642E+00
  4.46938771469E+00  4.52786906012E+00  4.58711562619E+00  4.64713742572E+00
  4.70794460254E+00  4.76954743320E+00  4.83195632873E+00  4.89518183638E+00
  4.95923464141E+00  5.02412556890E+00  5.08986558557E+00  5.15646580164E+00
  5.22393747270E+00  5.29229200162E+00  5.36154094049E+00  5.43169599254E+00
  5.50276901415E+00  5.57477201681E+00  5.64771716921E+00  5.72161679925E+00
  5.79648339616E+00  5.87232961255E+00  5.94916826662E+00  6.02701234429E+00
  6.10587500139E+00  6.18576956590E+00  6.26670954019E+00  6.34870860330E+00
  6.43178061328E+00  6.51593960950E+00  6.60119981501E+00  6.68757563901E+00
  6.77508167920E+00  6.86373272433E+00  6.95354375662E+00  7.04452995435E+00
  7.13670669442E+00  7.23008955490E+00  7.32469431773E+00  7.42053697132E+00
  7.51763371333E+00  7.61600095333E+00  7.71565531562E+00  7.81661364202E+00
  7.91889299472E+00  8.02251065920E+00  8.12748414707E+00  8.23383119910E+00
  8.34156978820E+00  8.45071812245E+00  8.56129464818E+00  8.67331805308E+00
  8.78680726937E+00  8.90178147701E+00  9.01826010690E+00  9.13626284422E+00
  9.25580963170E+00  9.37692067304E+00  9.49961643629E+00  9.62391765733E+00
  9.74984534335E+00  9.87742077645E+00  1.00066655172E+01  1.01376014082E+01
  1.02702505779E+01  1.04046354445E+01  1.05407787192E+01  1.06787034106E+01
  1.08184328283E+01  1.09599905869E+01  1.11034006100E+01  1.12486871343E+01
  1.13958747134E+01  1.15449882225E+01  1.16960528620E+01  1.18490941624E+01
  1.20041379878E+01  1.21612105411E+01  1.23203383680E+01  1.24815483614E+01
  1.26448677661E+01  1.28103241836E+01  1.29779455764E+01  1.31477602729E+01
  1.33197969721E+01  1.34940847488E+01  1.36706530579E+01  1.38495317398E+01
  1.40307510256E+01  1.42143415418E+01  1.44003343155E+01  1.45887607799E+01
  1.47796527797E+01  1.49730425759E+01  1.51689628520E+01  1.53674467189E+01
  1.55685277209E+01  1.57722398411E+01  1.59786175074E+01  1.61876955980E+01
  1.63995094478E+01  1.66140948537E+01  1.68314880812E+01  1.70517258702E+01
  1.72748454414E+01  1.75008845027E+01  1.77298812551E+01  1.79618743996E+01
  1.81969031437E+01  1.84350072077E+01  1.86762268318E+01  1.89206027826E+01
  1.91681763604E+01  1.94189894056E+01  1.96730843063E+01  1.99305040050E+01
  2.01912920063E+01  2.04554923840E+01  2.07231497886E+01  2.09943094549E+01
  2.12690172094E+01  2.15473194785E+01  2.18292632958E+01  2.21148963106E+01
  2.24042667955E+01  2.26974236548E+01  2.29944164328E+01  2.32952953218E+01
  2.36001111712E+01  2.39089154955E+01  2.42217604835E+01  2.45386990067E+01
  2.48597846283E+01  2.51850716128E+01  2.55146149343E+01  2.58484702864E+01
  2.61866940916E+01  2.65293435104E+01  2.68764764514E+01  2.72281515808E+01
  2.75844283327E+01  2.79453669186E+01  2.83110283381E+01  2.86814743887E+01
  2.90567676768E+01  2.94369716277E+01  2.98221504970E+01  3.02123693806E+01
  3.06076942266E+01  3.10081918457E+01  3.14139299231E+01  3.18249770294E+01
  3.22414026325E+01  3.26632771095E+01  3.30906717580E+01  3.35236588088E+01
  3.39623114377E+01  3.44067037781E+01  3.48569109333E+01  3.53130089895E+01
  3.57750750282E+01  3.62431871397E+01  3.67174244361E+01  3.71978670647E+01
  3.76845962213E+01  3.81776941643E+01  3.86772442286E+01  3.91833308392E+01
  3.96960395259E+01  4.02154569378E+01  4.07416708576E+01  4.12747702168E+01
  4.18148451104E+01  4.23619868124E+01  4.29162877909E+01  4.34778417242E+01
  4.40467435163E+01  4.46230893128E+01  4.52069765177E+01  4.57985038091E+01
  4.63977711568E+01  4.70048798381E+01  4.76199324561E+01  4.82430329560E+01
  4.88742866432E+01  4.95138002012E+01  5.01616817094E+01  5.08180406611E+01
  5.14829879826E+01  5.21566360516E+01  5.28390987163E+01  5.35304913144E+01
  5.42309306930E+01  5.49405352279E+01  5.56594248440E+01  5.63877210354E+01
  5.71255468859E+01  5.78730270898E+01  5.86302879730E+01  5.93974575143E+01
  6.01746653674E+01  6.09620428822E+01  6.17597231273E+01  6.25678409126E+01
  6.33865328119E+01  6.42159371862E+01  6.50561942066E+01  6.59074458787E+01
  6.67698360661E+01  6.76435105147E+01  6.85286168775E+01  6.94253047397E+01
  7.03337256436E+01  7.12540331146E+01  7.21863826867E+01  7.31309319294E+01
  7.40878404736E+01  7.50572700392E+01  7.60393844620E+01  7.70343497218E+01
  7.80423339701E+01  7.90635075585E+01  8.00980430679E+01  8.11461153372E+01
  8.22079014932E+01  8.32835809802E+01  8.43733355905E+01  8.54773494954E+01
  8.65958092759E+01  8.77289039542E+01  8.88768250260E+01  9.00397664928E+01
  9.12179248945E+01  9.24114993426E+01  9.36206915540E+01  9.48457058851E+01
  9.60867493663E+01  9.73440317368E+01  9.86177654803E+01  9.99081658609E+01
  1.01215450959E+02  1.02539841710E+02  1.03881561938E+02  1.05240838397E+02
  1.06617900808E+02  1.08012981898E+02  1.09426317440E+02  1.10858146289E+02
  1.12308710429E+02  1.13778255008E+02  1.15267028384E+02  1.16775282161E+02
  1.18303271239E+02
  </PP_R>
  <PP_RAB>
  6.24974805729E-07  6.33152518165E-07  6.41437234883E-07  6.49830356022E-07
  6.58333300036E-07  6.66947503946E-07  6.75674423571E-07  6.84515533782E-07
  6.93472328747E-07  7.02546322187E-07  7.11739047626E-07  7.21052058659E-07
  7.30486929207E-07  7.40045253783E-07  7.49728647769E-07  7.59538747681E-07
  7.69477211449E-07  7.79545718697E-07  7.89745971028E-07  8.00079692306E-07
  8.10548628957E-07  8.21154550256E-07  8.31899248628E-07  8.42784539953E-07
  8.53812263871E-07  8.64984284094E-07  8.76302488720E-07  8.87768790552E-07
  8.99385127422E-07  9.11153462520E-07  9.23075784722E-07  9.35154108928E-07
  9.47390476404E-07  9.59786955126E-07  9.72345640127E-07  9.85068653856E-07
  9.97958146532E-07  1.01101629651E-06  1.02424531065E-06  1.03764742468E-06
  1.05122490360E-06  1.06498004203E-06  1.07891516462E-06  1.09303262644E-06
  1.10733481338E-06  1.12182414253E-06  1.13650306264E-06  1.15137405447E-06
  1.16643963125E-06  1.18170233911E-06  1.19716475748E-06  1.21282949954E-06
  1.22869921267E-06  1.24477657889E-06  1.26106431532E-06  1.27756517462E-06
  1.29428194547E-06  1.31121745305E-06  1.32837455951E-06  1.34575616442E-06
  1.36336520533E-06  1.38120465821E-06  1.39927753796E-06  1.41758689894E-06
  1.43613583548E-06  1.45492748240E-06  1.47396501553E-06  1.49325165225E-06
  1.51279065205E-06  1.53258531708E-06  1.55263899267E-06  1.57295506795E-06
  1.59353697637E-06  1.61438819634E-06  1.63551225176E-06  1.65691271264E-06
  1.67859319571E-06  1.70055736503E-06  1.72280893259E-06  1.74535165895E-06
  1.76818935391E-06  1.79132587707E-06  1.81476513857E-06  1.83851109970E-06
  1.86256777358E-06  1.88693922584E-06  1.91162957533E-06  1.93664299476E-06
  1.96198371147E-06  1.98765600810E-06  2.01366422332E-06  2.04001275259E-06
  2.06670604887E-06  2.09374862339E-06  2.12114504642E-06  2.14889994800E-06
  2.17701801879E-06  2.20550401080E-06  2.23436273825E-06  2.26359907831E-06
  2.29321797201E-06  2.32322442500E-06  2.35362350844E-06  2.38442035987E-06
  2.41562018401E-06  2.44722825371E-06  2.47924991080E-06  2.51169056704E-06
  2.54455570496E-06  2.57785087885E-06  2.61158171567E-06  2.64575391602E-06
  2.68037325508E-06  2.71544558359E-06  2.75097682888E-06  2.78697299579E-06
  2.82344016778E-06  2.86038450787E-06  2.89781225976E-06  2.93572974881E-06
  2.97414338318E-06  3.01305965485E-06  3.05248514079E-06  3.09242650397E-06
  3.13289049460E-06  3.17388395117E-06  3.21541380169E-06  3.25748706479E-06
  3.30011085096E-06  3.34329236371E-06  3.38703890084E-06  3.43135785560E-06
  3.47625671800E-06  3.52174307607E-06  3.56782461709E-06  3.61450912897E-06
  3.66180450149E-06  3.70971872769E-06  3.75825990519E-06  3.80743623755E-06
  3.85725603570E-06  3.90772771930E-06  3.95885981819E-06  4.01066097380E-06
  4.06313994067E-06  4.11630558786E-06  4.17016690049E-06  4.22473298125E-06
  4.28001305194E-06  4.33601645502E-06  4.39275265521E-06  4.45023124104E-06
  4.50846192655E-06  4.56745455286E-06  4.62721908985E-06  4.68776563789E-06
  4.74910442948E-06  4.81124583101E-06  4.87420034455E-06  4.93797860954E-06
  5.00259140467E-06  5.06804964966E-06  5.13436440710E-06  5.20154688434E-06
  5.26960843539E-06  5.33856056280E-06  5.40841491966E-06  5.47918331151E-06
  5.55087769838E-06  5.62351019680E-06  5.69709308182E-06  5.77163878913E-06
  5.84715991713E-06  5.92366922908E-06  6.00117965523E-06  6.07970429502E-06
  6.15925641930E-06  6.23984947259E-06  6.32149707528E-06  6.40421302603E-06
  6.48801130402E-06  6.57290607136E-06  6.65891167547E-06  6.74604265150E-06
  6.83431372480E-06  6.92373981339E-06  7.01433603048E-06  7.10611768705E-06
  7.19910029443E-06  7.29329956690E-06  7.38873142434E-06  7.48541199499E-06
  7.58335761808E-06  7.68258484665E-06  7.78311045035E-06  7.88495141824E-06
  7.98812496169E-06  8.09264851726E-06  8.19853974970E-06  8.30581655487E-06
  8.41449706281E-06  8.52459964077E-06  8.63614289637E-06  8.74914568067E-06
  8.86362709141E-06  8.97960647623E-06  9.09710343591E-06  9.21613782773E-06
  9.33672976877E-06  9.45889963937E-06  9.58266808652E-06  9.70805602739E-06
  9.83508465283E-06  9.96377543098E-06  1.00941501109E-05  1.02262307262E-05
  1.03600395989E-05  1.04955993428E-05  1.06329328681E-05  1.07720633843E-05
  1.09130144049E-05  1.10558097509E-05  1.12004735550E-05  1.13470302659E-05
  1.14955046518E-05  1.16459218054E-05  1.17983071475E-05  1.19526864316E-05
  1.21090857482E-05  1.22675315291E-05  1.24280505519E-05  1.25906699450E-05
  1.27554171912E-05  1.29223201332E-05  1.30914069781E-05  1.32627063020E-05
  1.34362470548E-05  1.36120585653E-05  1.37901705462E-05  1.39706130986E-05
  1.41534167179E-05  1.43386122984E-05  1.45262311384E-05  1.47163049461E-05
  1.49088658444E-05  1.51039463764E-05  1.53015795114E-05  1.55017986497E-05
  1.57046376288E-05  1.59101307292E-05  1.61183126794E-05  1.63292186629E-05
  1.65428843232E-05  1.67593457703E-05  1.69786395867E-05  1.72008028337E-05
  1.74258730573E-05  1.76538882948E-05  1.78848870816E-05  1.81189084568E-05
  1.83559919706E-05  1.85961776908E-05  1.88395062093E-05  1.90860186492E-05
  1.93357566716E-05  1.95887624830E-05  1.98450788418E-05  2.01047490662E-05
  2.03678170410E-05  2.06343272254E-05  2.09043246602E-05  2.11778549757E-05
  2.14549643990E-05  2.17356997623E-05  2.20201085107E-05  2.23082387098E-05
  2.26001390544E-05  2.28958588762E-05  2.31954481527E-05  2.34989575151E-05
  2.38064382573E-05  2.41179423442E-05  2.44335224208E-05  2.47532318208E-05
  2.50771245759E-05  2.54052554247E-05  2.57376798222E-05  2.60744539488E-05
  2.64156347202E-05  2.67612797968E-05  2.71114475933E-05  2.74661972890E-05
  2.78255888374E-05  2.81896829765E-05  2.85585412392E-05  2.89322259633E-05
  2.93108003024E-05  2.96943282366E-05  3.00828745829E-05  3.04765050066E-05
  3.08752860322E-05  3.12792850547E-05  3.16885703507E-05  3.21032110906E-05
  3.25232773495E-05  3.29488401198E-05  3.33799713224E-05  3.38167438196E-05
  3.42592314270E-05  3.47075089261E-05  3.51616520768E-05  3.56217376304E-05
  3.60878433424E-05  3.65600479858E-05  3.70384313644E-05  3.75230743260E-05
  3.80140587765E-05  3.85114676934E-05  3.90153851400E-05  3.95258962795E-05
  4.00430873896E-05  4.05670458768E-05  4.10978602913E-05  4.16356203420E-05
  4.21804169116E-05  4.27323420720E-05  4.32914891000E-05  4.38579524927E-05
  4.44318279838E-05  4.50132125595E-05  4.56022044753E-05  4.61989032721E-05
  4.68034097936E-05  4.74158262028E-05  4.80362559994E-05  4.86648040376E-05
  4.93015765435E-05  4.99466811332E-05  5.06002268309E-05  5.12623240874E-05
  5.19330847986E-05  5.26126223248E-05  5.33010515093E-05  5.39984886985E-05
  5.47050517607E-05  5.54208601069E-05  5.61460347104E-05  5.68806981274E-05
  5.76249745177E-05  5.83789896659E-05  5.91428710022E-05  5.99167476246E-05
  6.07007503199E-05  6.14950115865E-05  6.22996656564E-05  6.31148485180E-05
  6.39406979393E-05  6.47773534908E-05  6.56249565691E-05  6.64836504213E-05