  182

    1
0.0000000000e+00 0.0000000000e+00 0.0000000000e+00
0.0000000000e+00 0.0000000000e+00 0.0000000000e+00
     1      1      1
 1  1  1     0.0000000000e+00
 1  1  2     0.0000000000e+00
 1  1  3     0.0000000000e+00
 1  2  1     0.0000000000e+00
 1  2  2     0.0000000000e+00
 1  2  3     2.3761065743e+01
 1  3  1     0.0000000000e+00
 1  3  2     2.3761065743e+01
 1  3  3     0.0000000000e+00
 2  1  1     0.0000000000e+00
 2  1  2     0.0000000000e+00
 2  1  3     2.3761065743e+01
 2  2  1     0.0000000000e+00
 2  2  2     0.0000000000e+00
 2  2  3     0.0000000000e+00
 2  3  1     2.3761065743e+01
 2  3  2     0.0000000000e+00
 2  3  3     0.0000000000e+00
 3  1  1     0.0000000000e+00
 3  1  2     2.3761065743e+01
 3  1  3     0.0000000000e+00
 3  2  1     2.3761065743e+01
 3  2  2     0.0000000000e+00
 3  2  3     0.0000000000e+00
 3  3  1     0.0000000000e+00
 3  3  2     0.0000000000e+00
 3  3  3     0.0000000000e+00

    2
0.0000000000e+00 0.0000000000e+00 0.0000000000e+00
0.0000000000e+00 2.8107498626e+00 2.8107498626e+00
     1      1      1
 1  1  1    -2.5442317428e-03
 1  1  2     0.0000000000e+00
 1  1  3     0.0000000000e+00
 1  2  1     0.0000000000e+00
 1  2  2    -8.6518558539e-03
 1  2  3     2.2839151267e-01
 1  3  1     0.0000000000e+00
 1  3  2     2.2839151267e-01
 1  3  3    -8.6518558539e-03
 2  1  1     0.0000000000e+00
 2  1  2    -8.6518558539e-03
 2  1  3     2.2839151267e-01
 2  2  1    -3.4343029211e-01
 2  2  2     0.0000000000e+00
 2  2  3     0.0000000000e+00
 2  3  1    -2.3409933716e-01
 2  3  2     0.0000000000e+00
 2  3  3     0.0000000000e+00
 3  1  1     0.0000000000e+00
 3  1  2     2.2839151267e-01
 3  1  3    -8.6518558539e-03
 3  2  1    -2.3409933716e-01
 3  2  2     0.0000000000e+00
 3  2  3     0.0000000000e+00
 3  3  1    -3.4343029211e-01
 3  3  2     0.0000000000e+00
 3  3  3     0.0000000000e+00

    3
0.0000000000e+00 0.0000000000e+00 0.0000000000e+00
2.8107498626e+00 0.0000000000e+00 2.8107498626e+00
     1      1      1
 1  1  1     0.0000000000e+00
 1  1  2    -3.4343029211e-01
 1  1  3     0.0000000000e+00
 1  2  1    -8.6518558539e-03
 1  2  2     0.0000000000e+00
 1  2  3     2.2839151267e-01
 1  3  1     0.0000000000e+00
 1  3  2    -2.3409933716e-01
 1  3  3     0.0000000000e+00
 2  1  1    -8.6518558539e-03
 2  1  2     0.0000000000e+00
 2  1  3     2.2839151267e-01
 2  2  1     0.0000000000e+00
 2  2  2    -2.5442317428e-03
 2  2  3     0.0000000000e+00
 2  3  1     2.2839151267e-01
 2  3  2     0.0000000000e+00
 2  3  3    -8.6518558539e-03
 3  1  1     0.0000000000e+00
 3  1  2    -2.3409933716e-01
 3  1  3     0.0000000000e+00
 3  2  1     2.2839151267e-01
 3  2  2     0.0000000000e+00
 3  2  3    -8.6518558539e-03
 3  3  1     0.0000000000e+00
 3  3  2    -3.4343029211e-01
 3  3  3     0.0000000000e+00

    4
0.0000000000e+00 0.0000000000e+00 0.0000000000e+00
2.8107498626e+00 -2.8107498626e+00 0.0000000000e+00
     1      1      1
 1  1  1     0.0000000000e+00
 1  1  2     0.0000000000e+00
 1  1  3     3.4343029211e-01
 1  2  1     0.0000000000e+00
 1  2  2     0.0000000000e+00
 1  2  3    -2.3409933716e-01
 1  3  1     8.6518558539e-03
 1  3  2     2.2839151267e-01
 1  3  3     0.0000000000e+00
 2  1  1     0.0000000000e+00
 2  1  2     0.0000000000e+00
 2  1  3    -2.3409933716e-01
 2  2  1     0.0000000000e+00
 2  2  2     0.0000000000e+00
 2  2  3     3.4343029211e-01
 2  3  1     2.2839151267e-01
 2  3  2     8.6518558539e-03
 2  3  3     0.0000000000e+00
 3  1  1     8.6518558539e-03
 3  1  2     2.2839151267e-01
 3  1  3     0.0000000000e+00
 3  2  1     2.2839151267e-01
 3  2  2     8.6518558539e-03
 3  2  3     0.0000000000e+00
 3  3  1     0.0000000000e+00
 3  3  2     0.0000000000e+00
 3  3  3     2.5442317428e-03

    5
0.0000000000e+00 0.0000000000e+00 0.0000000000e+00
2.8107498626e+00 2.8107498626e+00 5.6214997252e+00
     1      1      2
 1  1  1     3.0492250000e+00
 1  1  2     4.4804696440e+00
 1  1  3    -4.4804696440e+00
 1  2  1     4.5968123142e+00
 1  2  2     4.5968123142e+00
 1  2  3    -6.0516082800e+00
 1  3  1    -4.5968123142e+00
 1  3  2    -6.0516082800e+00
 1  3  3     4.5968123142e+00
 2  1  1     4.5968123142e+00
 2  1  2     4.5968123142e+00
 2  1  3    -6.0516082800e+00
 2  2  1     4.4804696440e+00
 2  2  2     3.0492250000e+00
 2  2  3    -4.4804696440e+00
 2  3  1    -6.0516082800e+00
 2  3  2    -4.5968123142e+00
 2  3  3     4.5968123142e+00
 3  1  1    -4.5968123142e+00
 3  1  2    -6.0516082800e+00
 3  1  3     4.5968123142e+00
 3  2  1    -6.0516082800e+00
 3  2  2    -4.5968123142e+00
 3  2  3     4.5968123142e+00
 3  3  1     4.4804696440e+00
 3  3  2     4.4804696440e+00
 3  3  3    -3.0492250000e+00

    6
0.0000000000e+00 0.0000000000e+00 0.0000000000e+00
2.8107498626e+00 2.8107498626e+00 0.0000000000e+00
     1      1      1
 1  1  1     0.0000000000e+00
 1  1  2     0.0000000000e+00
 1  1  3    -3.4343029211e-01
 1  2  1     0.0000000000e+00
 1  2  2     0.0000000000e+00
 1  2  3    -2.3409933716e-01
 1  3  1    -8.6518558539e-03
 1  3  2     2.2839151267e-01
 1  3  3     0.0000000000e+00
 2  1  1     0.0000000000e+00
 2  1  2     0.0000000000e+00
 2  1  3    -2.3409933716e-01
 2  2  1     0.0000000000e+00
 2  2  2     0.0000000000e+00
 2  2  3    -3.4343029211e-01
 2  3  1     2.2839151267e-01
 2  3  2    -8.6518558539e-03
 2  3  3     0.0000000000e+00
 3  1  1    -8.6518558539e-03
 3  1  2     2.2839151267e-01
 3  1  3     0.0000000000e+00
 3  2  1     2.2839151267e-01
 3  2  2    -8.6518558539e-03
 3  2  3     0.0000000000e+00
 3  3  1     0.0000000000e+00
 3  3  2     0.0000000000e+00
 3  3  3    -2.5442317428e-03

    7
0.0000000000e+00 0.0000000000e+00 0.0000000000e+00
2.8107498626e+00 0.0000000000e+00 -2.8107498626e+00
     1      1      1
 1  1  1     0.0000000000e+00
 1  1  2     3.4343029211e-01
 1  1  3     0.0000000000e+00
 1  2  1     8.6518558539e-03
 1  2  2     0.0000000000e+00
 1  2  3     2.2839151267e-01
 1  3  1     0.0000000000e+00
 1  3  2    -2.3409933716e-01
 1  3  3     0.0000000000e+00
 2  1  1     8.6518558539e-03
 2  1  2     0.0000000000e+00
 2  1  3     2.2839151267e-01
 2  2  1     0.0000000000e+00
 2  2  2     2.5442317428e-03
 2  2  3     0.0000000000e+00
 2  3  1     2.2839151267e-01
 2  3  2     0.0000000000e+00
 2  3  3     8.6518558539e-03
 3  1  1     0.0000000000e+00
 3  1  2    -2.3409933716e-01
 3  1  3     0.0000000000e+00
 3  2  1     2.2839151267e-01
 3  2  2     0.0000000000e+00
 3  2  3     8.6518558539e-03
 3  3  1     0.0000000000e+00
 3  3  2     3.4343029211e-01
 3  3  3     0.0000000000e+00

    8
0.0000000000e+00 0.0000000000e+00 0.0000000000e+00
2.8107498626e+00 5.6214997252e+00 2.8107498626e+00
     1      1      2
 1  1  1     3.0492250000e+00
 1  1  2    -4.4804696440e+00
 1  1  3     4.4804696440e+00
 1  2  1    -4.5968123142e+00
 1  2  2     4.5968123142e+00
 1  2  3    -6.0516082800e+00
 1  3  1     4.5968123142e+00
 1  3  2    -6.0516082800e+00
 1  3  3     4.5968123142e+00
 2  1  1    -4.5968123142e+00
 2  1  2     4.5968123142e+00
 2  1  3    -6.0516082800e+00
 2  2  1     4.4804696440e+00
 2  2  2    -3.0492250000e+00
 2  2  3     4.4804696440e+00
 2  3  1    -6.0516082800e+00
 2  3  2     4.5968123142e+00
 2  3  3    -4.5968123142e+00
 3  1  1     4.5968123142e+00
 3  1  2    -6.0516082800e+00
 3  1  3     4.5968123142e+00
 3  2  1    -6.0516082800e+00
 3  2  2     4.5968123142e+00
 3  2  3    -4.5968123142e+00
 3  3  1     4.4804696440e+00
 3  3  2    -4.4804696440e+00
 3  3  3     3.0492250000e+00

    9
0.0000000000e+00 0.0000000000e+00 0.0000000000e+00
0.0000000000e+00 2.8107498626e+00 -2.8107498626e+00
     1      1      1
 1  1  1     2.5442317428e-03
 1  1  2     0.0000000000e+00
 1  1  3     0.0000000000e+00
 1  2  1     0.0000000000e+00
 1  2  2     8.6518558539e-03
 1  2  3     2.2839151267e-01
 1  3  1     0.0000000000e+00
 1  3  2     2.2839151267e-01
 1  3  3     8.6518558539e-03
 2  1  1     0.0000000000e+00
 2  1  2     8.6518558539e-03
 2  1  3     2.2839151267e-01
 2  2  1     3.4343029211e-01
 2  2  2     0.0000000000e+00
 2  2  3     0.0000000000e+00
 2  3  1    -2.3409933716e-01
 2  3  2     0.0000000000e+00
 2  3  3     0.0000000000e+00
 3  1  1     0.0000000000e+00
 3  1  2     2.2839151267e-01
 3  1  3     8.6518558539e-03
 3  2  1    -2.3409933716e-01
 3  2  2     0.0000000000e+00
 3  2  3     0.0000000000e+00
 3  3  1     3.4343029211e-01
 3  3  2     0.0000000000e+00
 3  3  3     0.0000000000e+00

   10
0.0000000000e+00 0.0000000000e+00 0.0000000000e+00
5.6214997252e+00 2.8107498626e+00 2.8107498626e+00
     1      1      2
 1  1  1    -3.0492250000e+00
 1  1  2     4.4804696440e+00
 1  1  3     4.4804696440e+00
 1  2  1     4.5968123142e+00
 1  2  2    -4.5968123142e+00
 1  2  3    -6.0516082800e+00
 1  3  1     4.5968123142e+00
 1  3  2    -6.0516082800e+00
 1  3  3    -4.5968123142e+00
 2  1  1     4.5968123142e+00
 2  1  2    -4.5968123142e+00
 2  1  3    -6.0516082800e+00
 2  2  1    -4.4804696440e+00
 2  2  2     3.0492250000e+00
 2  2  3     4.4804696440e+00
 2  3  1    -6.0516082800e+00
 2  3  2     4.5968123142e+00
 2  3  3     4.5968123142e+00
 3  1  1     4.5968123142e+00
 3  1  2    -6.0516082800e+00
 3  1  3    -4.5968123142e+00
 3  2  1    -6.0516082800e+00
 3  2  2     4.5968123142e+00
 3  2  3     4.5968123142e+00
 3  3  1    -4.4804696440e+00
 3  3  2     4.4804696440e+00
 3  3  3     3.0492250000e+00

   11
0.0000000000e+00 0.0000000000e+00 0.0000000000e+00
5.6214997252e+00 5.6214997252e+00 5.6214997252e+00
     1      1      2
 1  1  1    -3.0492250000e+00
 1  1  2    -4.4804696440e+00
 1  1  3    -4.4804696440e+00
 1  2  1    -4.5968123142e+00
 1  2  2    -4.5968123142e+00
 1  2  3    -6.0516082800e+00
 1  3  1    -4.5968123142e+00
 1  3  2    -6.0516082800e+00
 1  3  3    -4.5968123142e+00
 2  1  1    -4.5968123142e+00
 2  1  2    -4.5968123142e+00
 2  1  3    -6.0516082800e+00
 2  2  1    -4.4804696440e+00
 2  2  2    -3.0492250000e+00
 2  2  3    -4.4804696440e+00
 2  3  1    -6.0516082800e+00
 2  3  2    -4.5968123142e+00
 2  3  3    -4.5968123142e+00
 3  1  1    -4.5968123142e+00
 3  1  2    -6.0516082800e+00
 3  1  3    -4.5968123142e+00
 3  2  1    -6.0516082800e+00
 3  2  2    -4.5968123142e+00
 3  2  3    -4.5968123142e+00
 3  3  1    -4.4804696440e+00
 3  3  2    -4.4804696440e+00
 3  3  3    -3.0492250000e+00

   12
0.0000000000e+00 2.8107498626e+00 2.8107498626e+00
0.0000000000e+00 0.0000000000e+00 0.0000000000e+00
     1      1      1
 1  1  1    -2.5442317428e-03
 1  1  2     0.0000000000e+00
 1  1  3     0.0000000000e+00
 1  2  1     0.0000000000e+00
 1  2  2    -8.6518558539e-03
 1  2  3     2.2839151267e-01
 1  3  1     0.0000000000e+00
 1  3  2     2.2839151267e-01
 1  3  3    -8.6518558539e-03
 2  1  1     0.0000000000e+00
 2  1  2    -3.4343029211e-01
 2  1  3    -2.3409933716e-01
 2  2  1    -8.6518558539e-03
 2  2  2     0.0000000000e+00
 2  2  3     0.0000000000e+00
 2  3  1     2.2839151267e-01
 2  3  2     0.0000000000e+00
 2  3  3     0.0000000000e+00
 3  1  1     0.0000000000e+00
 3  1  2    -2.3409933716e-01
 3  1  3    -3.4343029211e-01
 3  2  1     2.2839151267e-01
 3  2  2     0.0000000000e+00
 3  2  3     0.0000000000e+00
 3  3  1    -8.6518558539e-03
 3  3  2     0.0000000000e+00
 3  3  3     0.0000000000e+00

   13
0.0000000000e+00 2.8107498626e+00 2.8107498626e+00
0.0000000000e+00 2.8107498626e+00 2.8107498626e+00
     1      1      1
 1  1  1    -2.5442317428e-03
 1  1  2     0.0000000000e+00
 1  1  3     0.0000000000e+00
 1  2  1     0.0000000000e+00
 1  2  2    -3.4343029211e-01
 1  2  3    -2.3409933716e-01
 1  3  1     0.0000000000e+00
 1  3  2    -2.3409933716e-01
 1  3  3    -3.4343029211e-01
 2  1  1     0.0000000000e+00
 2  1  2    -8.6518558539e-03
 2  1  3     2.2839151267e-01
 2  2  1    -8.6518558539e-03
 2  2  2     0.0000000000e+00
 2  2  3     0.0000000000e+00
 2  3  1     2.2839151267e-01
 2  3  2     0.0000000000e+00
 2  3  3     0.0000000000e+00
 3  1  1     0.0000000000e+00
 3  1  2     2.2839151267e-01
 3  1  3    -8.6518558539e-03
 3  2  1     2.2839151267e-01
 3  2  2     0.0000000000e+00
 3  2  3     0.0000000000e+00
 3  3  1    -8.6518558539e-03
 3  3  2     0.0000000000e+00
 3  3  3     0.0000000000e+00

   14
0.0000000000e+00 2.8107498626e+00 2.8107498626e+00
2.8107498626e+00 0.0000000000e+00 2.8107498626e+00
     1      1      1
 1  1  1    -1.3600824974e-02
 1  1  2     3.1509168970e-02
 1  1  3    -3.1509168970e-02
 1  2  1     7.5178789696e-03
 1  2  2    -4.7441280001e-02
 1  2  3     2.8981954336e-02
 1  3  1     4.7441280001e-02
 1  3  2     6.6754014429e-02
 1  3  3     3.1509168970e-02
 2  1  1    -4.7441280001e-02
 2  1  2     3.1509168970e-02
 2  1  3     6.6754014429e-02
 2  2  1     7.5178789696e-03
 2  2  2    -1.3600824974e-02
 2  2  3     4.7441280001e-02
 2  3  1     2.8981954336e-02
 2  3  2    -3.1509168970e-02
 2  3  3     3.1509168970e-02
 3  1  1    -7.5178789696e-03
 3  1  2     2.8981954336e-02
 3  1  3    -4.7441280001e-02
 3  2  1     1.3128355988e-01
 3  2  2    -7.5178789696e-03
 3  2  3     7.5178789696e-03
 3  3  1     7.5178789696e-03
 3  3  2    -4.7441280001e-02
 3  3  3     1.3600824974e-02

   15
0.0000000000e+00 -2.8107498626e+00 -2.8107498626e+00
2.8107498626e+00 -2.8107498626e+00 0.0000000000e+00
     1      1      1
 1  1  1    -1.3600824974e-02
 1  1  2     3.1509168970e-02
 1  1  3    -3.1509168970e-02
 1  2  1    -4.7441280001e-02
 1  2  2     3.1509168970e-02
 1  2  3     6.6754014429e-02
 1  3  1    -7.5178789696e-03
 1  3  2     2.8981954336e-02
 1  3  3    -4.7441280001e-02
 2  1  1     7.5178789696e-03
 2  1  2    -4.7441280001e-02
 2  1  3     2.8981954336e-02
 2  2  1     7.5178789696e-03
 2  2  2    -1.3600824974e-02
 2  2  3     4.7441280001e-02
 2  3  1     1.3128355988e-01
 2  3  2    -7.5178789696e-03
 2  3  3     7.5178789696e-03
 3  1  1     4.7441280001e-02
 3  1  2     6.6754014429e-02
 3  1  3     3.1509168970e-02
 3  2  1     2.8981954336e-02
 3  2  2    -3.1509168970e-02
 3  2  3     3.1509168970e-02
 3  3  1     7.5178789696e-03
 3  3  2    -4.7441280001e-02
 3  3  3     1.3600824974e-02

   16
0.0000000000e+00 2.8107498626e+00 2.8107498626e+00
2.8107498626e+00 2.8107498626e+00 0.0000000000e+00
     1      1      1
 1  1  1    -1.3600824974e-02
 1  1  2    -3.1509168970e-02
 1  1  3     3.1509168970e-02
 1  2  1     4.7441280001e-02
 1  2  2     3.1509168970e-02
 1  2  3     6.6754014429e-02
 1  3  1     7.5178789696e-03
 1  3  2     2.8981954336e-02
 1  3  3    -4.7441280001e-02
 2  1  1    -7.5178789696e-03
 2  1  2    -4.7441280001e-02
 2  1  3     2.8981954336e-02
 2  2  1     7.5178789696e-03
 2  2  2     1.3600824974e-02
 2  2  3    -4.7441280001e-02
 2  3  1     1.3128355988e-01
 2  3  2     7.5178789696e-03
 2  3  3    -7.5178789696e-03
 3  1  1    -4.7441280001e-02
 3  1  2     6.6754014429e-02
 3  1  3     3.1509168970e-02
 3  2  1     2.8981954336e-02
 3  2  2     3.1509168970e-02
 3  2  3    -3.1509168970e-02
 3  3  1     7.5178789696e-03
 3  3  2     4.7441280001e-02
 3  3  3    -1.3600824974e-02

   17
0.0000000000e+00 -2.8107498626e+00 -2.8107498626e+00
2.8107498626e+00 0.0000000000e+00 -2.8107498626e+00
     1      1      1
 1  1  1    -1.3600824974e-02
 1  1  2    -3.1509168970e-02
 1  1  3     3.1509168970e-02
 1  2  1    -7.5178789696e-03
 1  2  2    -4.7441280001e-02
 1  2  3     2.8981954336e-02
 1  3  1    -4.7441280001e-02
 1  3  2     6.6754014429e-02
 1  3  3     3.1509168970e-02
 2  1  1     4.7441280001e-02
 2  1  2     3.1509168970e-02
 2  1  3     6.6754014429e-02
 2  2  1     7.5178789696e-03
 2  2  2     1.3600824974e-02
 2  2  3    -4.7441280001e-02
 2  3  1     2.8981954336e-02
 2  3  2     3.1509168970e-02
 2  3  3    -3.1509168970e-02
 3  1  1     7.5178789696e-03
 3  1  2     2.8981954336e-02
 3  1  3    -4.7441280001e-02
 3  2  1     1.3128355988e-01
 3  2  2     7.5178789696e-03
 3  2  3    -7.5178789696e-03
 3  3  1     7.5178789696e-03
 3  3  2     4.7441280001e-02
 3  3  3    -1.3600824974e-02

   18
0.0000000000e+00 -2.8107498626e+00 -2.8107498626e+00
5.6214997252e+00 2.8107498626e+00 2.8107498626e+00
     1      1      2
 1  1  1     2.9745881691e-02
 1  1  2     0.0000000000e+00
 1  1  3     0.0000000000e+00
 1  2  1    -1.8876183184e-02
 1  2  2     1.9197318501e-01
 1  2  3    -9.2882056517e-02
 1  3  1    -1.8876183184e-02
 1  3  2    -9.2882056517e-02
 1  3  3     1.9197318501e-01
 2  1  1     1.8876183184e-02
 2  1  2     1.9197318501e-01
 2  1  3    -9.2882056517e-02
 2  2  1    -6.3839020853e-03
 2  2  2     0.0000000000e+00
 2  2  3     0.0000000000e+00
 2  3  1    -3.8865702688e-01
 2  3  2    -6.3138233701e-02
 2  3  3     6.3138233701e-02
 3  1  1     1.8876183184e-02
 3  1  2    -9.2882056517e-02
 3  1  3     1.9197318501e-01
 3  2  1    -3.8865702688e-01
 3  2  2     6.3138233701e-02
 3  2  3    -6.3138233701e-02
 3  3  1    -6.3839020853e-03
 3  3  2     0.0000000000e+00
 3  3  3     0.0000000000e+00

   19
0.0000000000e+00 2.8107498626e+00 2.8107498626e+00
5.6214997252e+00 5.6214997252e+00 5.6214997252e+00
     1      1      2
 1  1  1     2.9745881691e-02
 1  1  2     0.0000000000e+00
 1  1  3     0.0000000000e+00
 1  2  1     1.8876183184e-02
 1  2  2     1.9197318501e-01
 1  2  3    -9.2882056517e-02
 1  3  1     1.8876183184e-02
 1  3  2    -9.2882056517e-02
 1  3  3     1.9197318501e-01
 2  1  1    -1.8876183184e-02
 2  1  2     1.9197318501e-01
 2  1  3    -9.2882056517e-02
 2  2  1    -6.3839020853e-03
 2  2  2     0.0000000000e+00
 2  2  3     0.0000000000e+00
 2  3  1    -3.8865702688e-01
 2  3  2     6.3138233701e-02
 2  3  3    -6.3138233701e-02
 3  1  1    -1.8876183184e-02
 3  1  2    -9.2882056517e-02
 3  1  3     1.9197318501e-01
 3  2  1    -3.8865702688e-01
 3  2  2    -6.3138233701e-02
 3  2  3     6.3138233701e-02
 3  3  1    -6.3839020853e-03
 3  3  2     0.0000000000e+00
 3  3  3     0.0000000000e+00

   20
2.8107498626e+00 0.0000000000e+00 2.8107498626e+00
0.0000000000e+00 0.0000000000e+00 0.0000000000e+00
     1      1      1
 1  1  1     0.0000000000e+00
 1  1  2    -8.6518558539e-03
 1  1  3     0.0000000000e+00
 1  2  1    -3.4343029211e-01
 1  2  2     0.0000000000e+00
 1  2  3    -2.3409933716e-01
 1  3  1     0.0000000000e+00
 1  3  2     2.2839151267e-01
 1  3  3     0.0000000000e+00
 2  1  1    -8.6518558539e-03
 2  1  2     0.0000000000e+00
 2  1  3     2.2839151267e-01
 2  2  1     0.0000000000e+00
 2  2  2    -2.5442317428e-03
 2  2  3     0.0000000000e+00
 2  3  1     2.2839151267e-01
 2  3  2     0.0000000000e+00
 2  3  3    -8.6518558539e-03
 3  1  1     0.0000000000e+00
 3  1  2     2.2839151267e-01
 3  1  3     0.0000000000e+00
 3  2  1    -2.3409933716e-01
 3  2  2     0.0000000000e+00
 3  2  3    -3.4343029211e-01
 3  3  1     0.0000000000e+00
 3  3  2    -8.6518558539e-03
 3  3  3     0.0000000000e+00

   21
2.8107498626e+00 0.0000000000e+00 2.8107498626e+00
0.0000000000e+00 2.8107498626e+00 2.8107498626e+00
     1      1      1
 1  1  1    -1.3600824974e-02
 1  1  2     7.5178789696e-03
 1  1  3     4.7441280001e-02
 1  2  1     3.1509168970e-02
 1  2  2    -4.7441280001e-02
 1  2  3     6.6754014429e-02
 1  3  1    -3.1509168970e-02
 1  3  2     2.8981954336e-02
 1  3  3     3.1509168970e-02
 2  1  1    -4.7441280001e-02
 2  1  2     7.5178789696e-03
 2  1  3     2.8981954336e-02
 2  2  1     3.1509168970e-02
 2  2  2    -1.3600824974e-02
 2  2  3    -3.1509168970e-02
 2  3  1     6.6754014429e-02
 2  3  2     4.7441280001e-02
 2  3  3     3.1509168970e-02
 3  1  1    -7.5178789696e-03
 3  1  2     1.3128355988e-01
 3  1  3     7.5178789696e-03
 3  2  1     2.8981954336e-02
 3  2  2    -7.5178789696e-03
 3  2  3    -4.7441280001e-02
 3  3  1    -4.7441280001e-02
 3  3  2     7.5178789696e-03
 3  3  3     1.3600824974e-02

   22
2.8107498626e+00 0.0000000000e+00 2.8107498626e+00
2.8107498626e+00 0.0000000000e+00 2.8107498626e+00
     1      1      1
 1  1  1     0.0000000000e+00
 1  1  2    -8.6518558539e-03
 1  1  3     0.0000000000e+00
 1  2  1    -8.6518558539e-03
 1  2  2     0.0000000000e+00
 1  2  3     2.2839151267e-01
 1  3  1     0.0000000000e+00
 1  3  2     2.2839151267e-01
 1  3  3     0.0000000000e+00
 2  1  1    -3.4343029211e-01
 2  1  2     0.0000000000e+00
 2  1  3    -2.3409933716e-01
 2  2  1     0.0000000000e+00
 2  2  2    -2.5442317428e-03
 2  2  3     0.0000000000e+00
 2  3  1    -2.3409933716e-01
 2  3  2     0.0000000000e+00
 2  3  3    -3.4343029211e-01
 3  1  1     0.0000000000e+00
 3  1  2     2.2839151267e-01
 3  1  3     0.0000000000e+00
 3  2  1     2.2839151267e-01
 3  2  2     0.0000000000e+00
 3  2  3    -8.6518558539e-03
 3  3  1     0.0000000000e+00
 3  3  2    -8.6518558539e-03
 3  3  3     0.0000000000e+00

   23
-2.8107498626e+00 0.0000000000e+00 -2.8107498626e+00
-2.8107498626e+00 2.8107498626e+00 0.0000000000e+00
     1      1      1
 1  1  1    -1.3600824974e-02
 1  1  2     7.5178789696e-03
 1  1  3     4.7441280001e-02
 1  2  1    -4.7441280001e-02
 1  2  2     7.5178789696e-03
 1  2  3     2.8981954336e-02
 1  3  1    -7.5178789696e-03
 1  3  2     1.3128355988e-01
 1  3  3     7.5178789696e-03
 2  1  1     3.1509168970e-02
 2  1  2    -4.7441280001e-02
 2  1  3     6.6754014429e-02
 2  2  1     3.1509168970e-02
 2  2  2    -1.3600824974e-02
 2  2  3    -3.1509168970e-02
 2  3  1     2.8981954336e-02
 2  3  2    -7.5178789696e-03
 2  3  3    -4.7441280001e-02
 3  1  1    -3.1509168970e-02
 3  1  2     2.8981954336e-02
 3  1  3     3.1509168970e-02
 3  2  1     6.6754014429e-02
 3  2  2     4.7441280001e-02
 3  2  3     3.1509168970e-02
 3  3  1    -4.7441280001e-02
 3  3  2     7.5178789696e-03
 3  3  3     1.3600824974e-02

   24
2.8107498626e+00 0.0000000000e+00 2.8107498626e+00
2.8107498626e+00 2.8107498626e+00 0.0000000000e+00
     1      1      1
 1  1  1     1.3600824974e-02
 1  1  2     7.5178789696e-03
 1  1  3    -4.7441280001e-02
 1  2  1    -4.7441280001e-02
 1  2  2    -7.5178789696e-03
 1  2  3     2.8981954336e-02
 1  3  1     7.5178789696e-03
 1  3  2     1.3128355988e-01
 1  3  3    -7.5178789696e-03
 2  1  1     3.1509168970e-02
 2  1  2     4.7441280001e-02
 2  1  3     6.6754014429e-02
 2  2  1    -3.1509168970e-02
 2  2  2    -1.3600824974e-02
 2  2  3     3.1509168970e-02
 2  3  1     2.8981954336e-02
 2  3  2     7.5178789696e-03
 2  3  3    -4.7441280001e-02
 3  1  1     3.1509168970e-02
 3  1  2     2.8981954336e-02
 3  1  3    -3.1509168970e-02
 3  2  1     6.6754014429e-02
 3  2  2    -4.7441280001e-02
 3  2  3     3.1509168970e-02
 3  3  1     4.7441280001e-02
 3  3  2     7.5178789696e-03
 3  3  3    -1.3600824974e-02

   25
-2.8107498626e+00 0.0000000000e+00 -2.8107498626e+00
2.8107498626e+00 5.6214997252e+00 2.8107498626e+00
     1      1      2
 1  1  1     0.0000000000e+00
 1  1  2    -6.3839020853e-03
 1  1  3     0.0000000000e+00
 1  2  1     1.9197318501e-01
 1  2  2     1.8876183184e-02
 1  2  3    -9.2882056517e-02
 1  3  1    -6.3138233701e-02
 1  3  2    -3.8865702688e-01
 1  3  3     6.3138233701e-02
 2  1  1     1.9197318501e-01
 2  1  2    -1.8876183184e-02
 2  1  3    -9.2882056517e-02
 2  2  1     0.0000000000e+00
 2  2  2     2.9745881691e-02
 2  2  3     0.0000000000e+00
 2  3  1    -9.2882056517e-02
 2  3  2    -1.8876183184e-02
 2  3  3     1.9197318501e-01
 3  1  1     6.3138233701e-02
 3  1  2    -3.8865702688e-01
 3  1  3    -6.3138233701e-02
 3  2  1    -9.2882056517e-02
 3  2  2     1.8876183184e-02
 3  2  3     1.9197318501e-01
 3  3  1     0.0000000000e+00
 3  3  2    -6.3839020853e-03
 3  3  3     0.0000000000e+00

   26
-2.8107498626e+00 0.0000000000e+00 -2.8107498626e+00
0.0000000000e+00 2.8107498626e+00 -2.8107498626e+00
     1      1      1
 1  1  1     1.3600824974e-02
 1  1  2     7.5178789696e-03
 1  1  3    -4.7441280001e-02
 1  2  1     3.1509168970e-02
 1  2  2     4.7441280001e-02
 1  2  3     6.6754014429e-02
 1  3  1     3.1509168970e-02
 1  3  2     2.8981954336e-02
 1  3  3    -3.1509168970e-02
 2  1  1    -4.7441280001e-02
 2  1  2    -7.5178789696e-03
 2  1  3     2.8981954336e-02
 2  2  1    -3.1509168970e-02
 2  2  2    -1.3600824974e-02
 2  2  3     3.1509168970e-02
 2  3  1     6.6754014429e-02
 2  3  2    -4.7441280001e-02
 2  3  3     3.1509168970e-02
 3  1  1     7.5178789696e-03
 3  1  2     1.3128355988e-01
 3  1  3    -7.5178789696e-03
 3  2  1     2.8981954336e-02
 3  2  2     7.5178789696e-03
 3  2  3    -4.7441280001e-02
 3  3  1     4.7441280001e-02
 3  3  2     7.5178789696e-03
 3  3  3    -1.3600824974e-02

   27
2.8107498626e+00 0.0000000000e+00 2.8107498626e+00
5.6214997252e+00 5.6214997252e+00 5.6214997252e+00
     1      1      2
 1  1  1     0.0000000000e+00
 1  1  2    -6.3839020853e-03
 1  1  3     0.0000000000e+00
 1  2  1     1.9197318501e-01
 1  2  2    -1.8876183184e-02
 1  2  3    -9.2882056517e-02
 1  3  1     6.3138233701e-02
 1  3  2    -3.8865702688e-01
 1  3  3    -6.3138233701e-02
 2  1  1     1.9197318501e-01
 2  1  2     1.8876183184e-02
 2  1  3    -9.2882056517e-02
 2  2  1     0.0000000000e+00
 2  2  2     2.9745881691e-02
 2  2  3     0.0000000000e+00
 2  3  1    -9.2882056517e-02
 2  3  2     1.8876183184e-02
 2  3  3     1.9197318501e-01
 3  1  1    -6.3138233701e-02
 3  1  2    -3.8865702688e-01
 3  1  3     6.3138233701e-02
 3  2  1    -9.2882056517e-02
 3  2  2    -1.8876183184e-02
 3  2  3     1.9197318501e-01
 3  3  1     0.0000000000e+00
 3  3  2    -6.3839020853e-03
 3  3  3     0.0000000000e+00

   28
2.8107498626e+00 -2.8107498626e+00 0.0000000000e+00
0.0000000000e+00 0.0000000000e+00 0.0000000000e+00
     1      1      1
 1  1  1     0.0000000000e+00
 1  1  2     0.0000000000e+00
 1  1  3     8.6518558539e-03
 1  2  1     0.0000000000e+00
 1  2  2     0.0000000000e+00
 1  2  3     2.2839151267e-01
 1  3  1     3.4343029211e-01
 1  3  2    -2.3409933716e-01
 1  3  3     0.0000000000e+00
 2  1  1     0.0000000000e+00
 2  1  2     0.0000000000e+00
 2  1  3     2.2839151267e-01
 2  2  1     0.0000000000e+00
 2  2  2     0.0000000000e+00
 2  2  3     8.6518558539e-03
 2  3  1    -2.3409933716e-01
 2  3  2     3.4343029211e-01
 2  3  3     0.0000000000e+00
 3  1  1     8.6518558539e-03
 3  1  2     2.2839151267e-01
 3  1  3     0.0000000000e+00
 3  2  1     2.2839151267e-01
 3  2  2     8.6518558539e-03
 3  2  3     0.0000000000e+00
 3  3  1     0.0000000000e+00
 3  3  2     0.0000000000e+00
 3  3  3     2.5442317428e-03

   29
2.8107498626e+00 -2.8107498626e+00 0.0000000000e+00
0.0000000000e+00 -2.8107498626e+00 -2.8107498626e+00
     1      1      1
 1  1  1    -1.3600824974e-02
 1  1  2    -4.7441280001e-02
 1  1  3    -7.5178789696e-03
 1  2  1     3.1509168970e-02
 1  2  2     3.1509168970e-02
 1  2  3     2.8981954336e-02
 1  3  1    -3.1509168970e-02
 1  3  2     6.6754014429e-02
 1  3  3    -4.7441280001e-02
 2  1  1     7.5178789696e-03
 2  1  2     7.5178789696e-03
 2  1  3     1.3128355988e-01
 2  2  1    -4.7441280001e-02
 2  2  2    -1.3600824974e-02
 2  2  3    -7.5178789696e-03
 2  3  1     2.8981954336e-02
 2  3  2     4.7441280001e-02
 2  3  3     7.5178789696e-03
 3  1  1     4.7441280001e-02
 3  1  2     2.8981954336e-02
 3  1  3     7.5178789696e-03
 3  2  1     6.6754014429e-02
 3  2  2    -3.1509168970e-02
 3  2  3    -4.7441280001e-02
 3  3  1     3.1509168970e-02
 3  3  2     3.1509168970e-02
 3  3  3     1.3600824974e-02

   30
-2.8107498626e+00 2.8107498626e+00 0.0000000000e+00
-2.8107498626e+00 0.0000000000e+00 -2.8107498626e+00
     1      1      1
 1  1  1    -1.3600824974e-02
 1  1  2    -4.7441280001e-02
 1  1  3    -7.5178789696e-03
 1  2  1     7.5178789696e-03
 1  2  2     7.5178789696e-03
 1  2  3     1.3128355988e-01
 1  3  1     4.7441280001e-02
 1  3  2     2.8981954336e-02
 1  3  3     7.5178789696e-03
 2  1  1     3.1509168970e-02
 2  1  2     3.1509168970e-02
 2  1  3     2.8981954336e-02
 2  2  1    -4.7441280001e-02
 2  2  2    -1.3600824974e-02
 2  2  3    -7.5178789696e-03
 2  3  1     6.6754014429e-02
 2  3  2    -3.1509168970e-02
 2  3  3    -4.7441280001e-02
 3  1  1    -3.1509168970e-02
 3  1  2     6.6754014429e-02
 3  1  3    -4.7441280001e-02
 3  2  1     2.8981954336e-02
 3  2  2     4.7441280001e-02
 3  2  3     7.5178789696e-03
 3  3  1     3.1509168970e-02
 3  3  2     3.1509168970e-02
 3  3  3     1.3600824974e-02

   31
2.8107498626e+00 -2.8107498626e+00 0.0000000000e+00
2.8107498626e+00 -2.8107498626e+00 0.0000000000e+00
     1      1      1
 1  1  1     0.0000000000e+00
 1  1  2     0.0000000000e+00
 1  1  3     8.6518558539e-03
 1  2  1     0.0000000000e+00
 1  2  2     0.0000000000e+00
 1  2  3     2.2839151267e-01
 1  3  1     8.6518558539e-03
 1  3  2     2.2839151267e-01
 1  3  3     0.0000000000e+00
 2  1  1     0.0000000000e+00
 2  1  2     0.0000000000e+00
 2  1  3     2.2839151267e-01
 2  2  1     0.0000000000e+00
 2  2  2     0.0000000000e+00
 2  2  3     8.6518558539e-03
 2  3  1     2.2839151267e-01
 2  3  2     8.6518558539e-03
 2  3  3     0.0000000000e+00
 3  1  1     3.4343029211e-01
 3  1  2    -2.3409933716e-01
 3  1  3     0.0000000000e+00
 3  2  1    -2.3409933716e-01
 3  2  2     3.4343029211e-01
 3  2  3     0.0000000000e+00
 3  3  1     0.0000000000e+00
 3  3  2     0.0000000000e+00
 3  3  3     2.5442317428e-03

   32
2.8107498626e+00 -2.8107498626e+00 0.0000000000e+00
2.8107498626e+00 0.0000000000e+00 -2.8107498626e+00
     1      1      1
 1  1  1     1.3600824974e-02
 1  1  2     4.7441280001e-02
 1  1  3    -7.5178789696e-03
 1  2  1    -7.5178789696e-03
 1  2  2    -7.5178789696e-03
 1  2  3     1.3128355988e-01
 1  3  1     4.7441280001e-02
 1  3  2     2.8981954336e-02
 1  3  3    -7.5178789696e-03
 2  1  1    -3.1509168970e-02
 2  1  2    -3.1509168970e-02
 2  1  3     2.8981954336e-02
 2  2  1     4.7441280001e-02
 2  2  2     1.3600824974e-02
 2  2  3    -7.5178789696e-03
 2  3  1     6.6754014429e-02
 2  3  2    -3.1509168970e-02
 2  3  3     4.7441280001e-02
 3  1  1    -3.1509168970e-02
 3  1  2     6.6754014429e-02
 3  1  3     4.7441280001e-02
 3  2  1     2.8981954336e-02
 3  2  2     4.7441280001e-02