  16   16
1 1
11.241585942000398 0.0 0.0
-0.0 11.241585942000402 -0.0
0.0 0.0 11.241585942000398
1 2
0.8819833324506825 0.0 0.0
-0.0 -0.3094032745457586 -0.4748509391386618
0.0 -0.4748509391386618 -0.3094032745457586
1 3
-0.3094032745457586 -0.0 -0.4748509391386618
0.0 0.8819833324506844 -0.0
-0.4748509391386618 0.0 -0.3094032745457586
1 4
-0.3094032745457586 0.4748509391386618 -0.0
0.4748509391386618 -0.3094032745457586 0.0
0.0 -0.0 0.8819833324506825
1 5
-0.3094032745457586 -0.4748509391386618 0.0
-0.4748509391386618 -0.3094032745457586 0.0
-0.0 -0.0 0.8819833324506825
1 6
-0.3094032745457586 -0.0 0.4748509391386618
0.0 0.8819833324506844 -0.0
0.4748509391386618 0.0 -0.3094032745457586
1 7
0.8819833324506825 0.0 0.0
-0.0 -0.3094032745457586 0.47485093913866366
0.0 0.4748509391386618 -0.3094032745457586
1 8
-0.16779009009551485 -0.0 -0.0
-0.0 -0.16779009009551485 0.0
-0.0 -0.0 -0.16779009009551485
1 9
0.09933327268291003 -0.1163312243157381 -0.1163312243157381
-0.1163312243157381 0.09933327268291003 -0.1163312243157381
-0.1163312243157381 -0.1163312243157381 0.09933327268291003
1 10
0.09933327268291003 0.1163312243157381 0.1163312243157381
0.1163312243157381 0.09933327268291003 -0.1163312243157381
0.1163312243157381 -0.1163312243157381 0.09933327268291003
1 11
0.09933327268291003 0.1163312243157381 -0.1163312243157381
0.1163312243157381 0.09933327268291003 0.1163312243157381
-0.1163312243157381 0.1163312243157381 0.09933327268291003
1 12
-2.9993706273387137 -1.5202192855453591 1.5202192855453591
-1.5202192855453611 -2.9993706273387155 1.5202192855453591
1.5202192855453591 1.5202192855453591 -2.9993706273387137
1 13
0.09933327268291003 -0.1163312243157381 0.1163312243157381
-0.1163312243157381 0.09933327268291003 0.1163312243157381
0.1163312243157381 0.1163312243157381 0.09933327268291003
1 14
-2.9993706273387137 1.5202192855453591 -1.5202192855453591
1.5202192855453611 -2.9993706273387155 1.5202192855453611
-1.5202192855453591 1.5202192855453591 -2.9993706273387137
1 15
-2.9993706273387137 1.5202192855453591 1.5202192855453591
1.5202192855453611 -2.9993706273387155 -1.5202192855453611
1.5202192855453611 -1.5202192855453591 -2.9993706273387137
1 16
-2.9993706273387137 -1.5202192855453591 -1.5202192855453591
-1.5202192855453611 -2.9993706273387155 -1.5202192855453611
-1.5202192855453591 -1.5202192855453591 -2.9993706273387137
2 1
0.8819833324506825 0.0 -0.0
0.0 -0.3094032745457586 -0.4748509391386618
-0.0 -0.4748509391386618 -0.3094032745457586
2 2
11.241585942000398 1.8897261349925716e-15 -0.0
0.0 11.241585942000402 -1.8897261349925716e-15
-0.0 -0.0 11.241585942000398
2 3
-0.3094032745457586 0.4748509391386618 -0.0
0.4748509391386618 -0.3094032745457586 -0.0
-0.0 -0.0 0.8819833324506825
2 4
-0.3094032745457586 0.0 -0.4748509391386618
0.0 0.8819833324506844 -0.0
-0.4748509391386618 0.0 -0.3094032745457586
2 5
-0.3094032745457586 -0.0 0.4748509391386618
0.0 0.8819833324506844 -0.0
0.4748509391386618 0.0 -0.3094032745457586
2 6
-0.3094032745457586 -0.4748509391386618 0.0
-0.4748509391386618 -0.3094032745457586 -0.0
-0.0 -0.0 0.8819833324506825
2 7
-0.16779009009551485 -0.0 0.0
-0.0 -0.16779009009551485 0.0
0.0 0.0 -0.16779009009551485
2 8
0.8819833324506825 0.0 0.0
-0.0 -0.3094032745457586 0.47485093913866366
0.0 0.4748509391386618 -0.3094032745457586
2 9
0.09933327268291003 0.1163312243157381 0.1163312243157381
0.1163312243157381 0.09933327268291003 -0.1163312243157381
0.1163312243157381 -0.1163312243157381 0.09933327268291003
2 10
0.09933327268291003 -0.1163312243157381 -0.1163312243157381
-0.1163312243157381 0.09933327268291003 -0.1163312243157381
-0.1163312243157381 -0.1163312243157381 0.09933327268291003
2 11
-2.9993706273387137 -1.5202192855453591 1.5202192855453591
-1.5202192855453611 -2.9993706273387155 1.5202192855453611
1.5202192855453591 1.5202192855453591 -2.9993706273387137
2 12
0.09933327268291003 0.1163312243157381 -0.1163312243157381
0.1163312243157381 0.09933327268291003 0.1163312243157381
-0.1163312243157381 0.1163312243157381 0.09933327268291003
2 13
-2.9993706273387137 1.5202192855453591 -1.5202192855453591
1.5202192855453611 -2.9993706273387155 1.5202192855453611
-1.5202192855453591 1.5202192855453591 -2.9993706273387137
2 14
0.09933327268291003 -0.1163312243157381 0.1163312243157381
-0.1163312243157381 0.09933327268291003 0.1163312243157381
0.1163312243157381 0.1163312243157381 0.09933327268291003
2 15
-2.9993706273387137 -1.5202192855453591 -1.5202192855453591
-1.5202192855453591 -2.9993706273387155 -1.5202192855453591
-1.5202192855453591 -1.5202192855453591 -2.9993706273387137
2 16
-2.9993706273387137 1.5202192855453591 1.5202192855453591
1.5202192855453591 -2.9993706273387155 -1.5202192855453591
1.5202192855453611 -1.5202192855453591 -2.9993706273387137
3 1
-0.3094032745457586 0.0 -0.4748509391386618
0.0 0.8819833324506844 -0.0
-0.4748509391386618 0.0 -0.3094032745457586
3 2
-0.3094032745457586 0.4748509391386618 -0.0
0.4748509391386618 -0.3094032745457586 -0.0
-0.0 -0.0 0.8819833324506825
3 3
11.241585942000398 1.8897261349925716e-15 -0.0
0.0 11.241585942000402 -1.8897261349925716e-15
-0.0 -0.0 11.241585942000398
3 4
0.8819833324506825 0.0 -0.0
0.0 -0.3094032745457586 -0.4748509391386618
-0.0 -0.4748509391386618 -0.3094032745457586
3 5
0.8819833324506825 0.0 0.0
-0.0 -0.3094032745457586 0.47485093913866366
0.0 0.4748509391386618 -0.3094032745457586
3 6
-0.16779009009551485 -0.0 0.0
-0.0 -0.16779009009551485 0.0
0.0 0.0 -0.16779009009551485
3 7
-0.3094032745457586 -0.4748509391386618 0.0
-0.4748509391386618 -0.3094032745457586 -0.0
-0.0 -0.0 0.8819833324506825
3 8
-0.3094032745457586 -0.0 0.4748509391386618
0.0 0.8819833324506844 -0.0
0.4748509391386618 0.0 -0.3094032745457586
3 9
0.09933327268291003 0.1163312243157381 -0.1163312243157381
0.1163312243157381 0.09933327268291003 0.1163312243157381
-0.1163312243157381 0.1163312243157381 0.09933327268291003
3 10
-2.9993706273387137 -1.5202192855453591 1.5202192855453591
-1.5202192855453611 -2.9993706273387155 1.5202192855453611
1.5202192855453591 1.5202192855453591 -2.9993706273387137
3 11
0.09933327268291003 -0.1163312243157381 -0.1163312243157381
-0.1163312243157381 0.09933327268291003 -0.1163312243157381
-0.1163312243157381 -0.1163312243157381 0.09933327268291003
3 12
0.09933327268291003 0.1163312243157381 0.1163312243157381
0.1163312243157381 0.09933327268291003 -0.1163312243157381
0.1163312243157381 -0.1163312243157381 0.09933327268291003
3 13
-2.9993706273387137 1.5202192855453591 1.5202192855453591
1.5202192855453591 -2.9993706273387155 -1.5202192855453591
1.5202192855453611 -1.5202192855453591 -2.9993706273387137
3 14
-2.9993706273387137 -1.5202192855453591 -1.5202192855453591
-1.5202192855453591 -2.9993706273387155 -1.5202192855453591
-1.5202192855453591 -1.5202192855453591 -2.9993706273387137
3 15
0.09933327268291003 -0.1163312243157381 0.1163312243157381
-0.1163312243157381 0.09933327268291003 0.1163312243157381
0.1163312243157381 0.1163312243157381 0.09933327268291003
3 16
-2.9993706273387137 1.5202192855453591 -1.5202192855453591
1.5202192855453611 -2.9993706273387155 1.5202192855453611
-1.5202192855453591 1.5202192855453591 -2.9993706273387137
4 1
-0.3094032745457586 0.4748509391386618 -0.0
0.4748509391386618 -0.3094032745457586 -0.0
-0.0 -0.0 0.8819833324506825
4 2
-0.3094032745457586 0.0 -0.4748509391386618
0.0 0.8819833324506844 -0.0
-0.4748509391386618 0.0 -0.3094032745457586
4 3
0.8819833324506825 0.0 -0.0
0.0 -0.3094032745457586 -0.4748509391386618
-0.0 -0.4748509391386618 -0.3094032745457586
4 4
11.241585942000398 1.8897261349925716e-15 -0.0
0.0 11.241585942000402 -1.8897261349925716e-15
-0.0 -0.0 11.241585942000398
4 5
-0.16779009009551485 -0.0 0.0
-0.0 -0.16779009009551485 0.0
0.0 0.0 -0.16779009009551485
4 6
0.8819833324506825 0.0 0.0
-0.0 -0.3094032745457586 0.47485093913866366
0.0 0.4748509391386618 -0.3094032745457586
4 7
-0.3094032745457586 -0.0 0.4748509391386618
0.0 0.8819833324506844 -0.0
0.4748509391386618 0.0 -0.3094032745457586
4 8
-0.3094032745457586 -0.4748509391386618 0.0
-0.4748509391386618 -0.3094032745457586 -0.0
-0.0 -0.0 0.8819833324506825
4 9
-2.9993706273387137 -1.5202192855453591 1.5202192855453591
-1.5202192855453611 -2.9993706273387155 1.5202192855453611
1.5202192855453591 1.5202192855453591 -2.9993706273387137
4 10
0.09933327268291003 0.1163312243157381 -0.1163312243157381
0.1163312243157381 0.09933327268291003 0.1163312243157381
-0.1163312243157381 0.1163312243157381 0.09933327268291003
4 11
0.09933327268291003 0.1163312243157381 0.1163312243157381
0.1163312243157381 0.09933327268291003 -0.1163312243157381
0.1163312243157381 -0.1163312243157381 0.09933327268291003
4 12
0.09933327268291003 -0.1163312243157381 -0.1163312243157381
-0.1163312243157381 0.09933327268291003 -0.1163312243157381
-0.1163312243157381 -0.1163312243157381 0.09933327268291003
4 13
-2.9993706273387137 -1.5202192855453591 -1.5202192855453591
-1.5202192855453591 -2.9993706273387155 -1.5202192855453591
-1.5202192855453591 -1.5202192855453591 -2.9993706273387137
4 14
-2.9993706273387137 1.5202192855453591 1.5202192855453591
1.5202192855453591 -2.9993706273387155 -1.5202192855453591
1.5202192855453611 -1.5202192855453591 -2.9993706273387137
4 15
-2.9993706273387137 1.5202192855453591 -1.5202192855453591
1.5202192855453611 -2.9993706273387155 1.5202192855453611
-1.5202192855453591 1.5202192855453591 -2.9993706273387137
4 16
0.09933327268291003 -0.1163312243157381 0.1163312243157381
-0.1163312243157381 0.09933327268291003 0.1163312243157381
0.1163312243157381 0.1163312243157381 0.09933327268291003
5 1
-0.3094032745457586 -0.4748509391386618 0.0
-0.4748509391386618 -0.3094032745457586 -0.0
-0.0 -0.0 0.8819833324506825
5 2
-0.3094032745457586 -0.0 0.4748509391386618
0.0 0.8819833324506844 -0.0
0.4748509391386618 0.0 -0.3094032745457586
5 3
0.8819833324506825 0.0 0.0
-0.0 -0.3094032745457586 0.47485093913866366
0.0 0.4748509391386618 -0.3094032745457586
5 4
-0.16779009009551485 -0.0 0.0
-0.0 -0.16779009009551485 0.0
0.0 0.0 -0.16779009009551485
5 5
11.241585942000398 1.8897261349925716e-15 -0.0
0.0 11.241585942000402 -1.8897261349925716e-15
-0.0 -0.0 11.241585942000398
5 6
0.8819833324506825 0.0 -0.0
0.0 -0.3094032745457586 -0.4748509391386618
-0.0 -0.4748509391386618 -0.3094032745457586
5 7
-0.3094032745457586 0.0 -0.4748509391386618
0.0 0.8819833324506844 -0.0
-0.4748509391386618 0.0 -0.3094032745457586
5 8
-0.3094032745457586 0.4748509391386618 -0.0
0.4748509391386618 -0.3094032745457586 -0.0
-0.0 -0.0 0.8819833324506825
5 9
0.09933327268291003 -0.1163312243157381 0.1163312243157381
-0.1163312243157381 0.09933327268291003 0.1163312243157381
0.1163312243157381 0.1163312243157381 0.09933327268291003
5 10
-2.9993706273387137 1.5202192855453591 -1.5202192855453591
1.5202192855453611 -2.9993706273387155 1.5202192855453611
-1.5202192855453591 1.5202192855453591 -2.9993706273387137
5 11
-2.9993706273387137 1.5202192855453591 1.5202192855453591
1.5202192855453591 -2.9993706273387155 -1.5202192855453591
1.5202192855453611 -1.5202192855453591 -2.9993706273387137
5 12
-2.9993706273387137 -1.5202192855453591 -1.5202192855453591
-1.5202192855453591 -2.9993706273387155 -1.5202192855453591
-1.5202192855453591 -1.5202192855453591 -2.9993706273387137
5 13
0.09933327268291003 -0.1163312243157381 -0.1163312243157381
-0.1163312243157381 0.09933327268291003 -0.1163312243157381
-0.1163312243157381 -0.1163312243157381 0.09933327268291003
5 14
0.09933327268291003 0.1163312243157381 0.1163312243157381
0.1163312243157381 0.09933327268291003 -0.1163312243157381
0.1163312243157381 -0.1163312243157381 0.09933327268291003
5 15
0.09933327268291003 0.1163312243157381 -0.1163312243157381
0.1163312243157381 0.09933327268291003 0.1163312243157381
-0.1163312243157381 0.1163312243157381 0.09933327268291003
5 16
-2.9993706273387137 -1.5202192855453591 1.5202192855453591
-1.5202192855453611 -2.9993706273387155 1.5202192855453611
1.5202192855453591 1.5202192855453591 -2.9993706273387137
6 1
-0.3094032745457586 -0.0 0.4748509391386618
0.0 0.8819833324506844 -0.0
0.4748509391386618 0.0 -0.3094032745457586
6 2
-0.3094032745457586 -0.4748509391386618 0.0
-0.4748509391386618 -0.3094032745457586 -0.0
-0.0 -0.0 0.8819833324506825
6 3
-0.16779009009551485 -0.0 0.0
-0.0 -0.16779009009551485 0.0
0.0 0.0 -0.16779009009551485
6 4
0.8819833324506825 0.0 0.0
-0.0 -0.3094032745457586 0.47485093913866366
0.0 0.4748509391386618 -0.3094032745457586
6 5
0.8819833324506825 0.0 -0.0
0.0 -0.3094032745457586 -0.4748509391386618
-0.0 -0.4748509391386618 -0.3094032745457586
6 6
11.241585942000398 1.8897261349925716e-15 -0.0
0.0 11.241585942000402 -1.8897261349925716e-15
-0.0 -0.0 11.241585942000398
6 7
-0.3094032745457586 0.4748509391386618 -0.0
0.4748509391386618 -0.3094032745457586 -0.0
-0.0 -0.0 0.8819833324506825
6 8
-0.3094032745457586 0.0 -0.4748509391386618
0.0 0.8819833324506844 -0.0
-0.4748509391386618 0.0 -0.3094032745457586
6 9
-2.9993706273387137 1.5202192855453591 -1.5202192855453591
1.5202192855453611 -2.9993706273387155 1.5202192855453611
-1.5202192855453591 1.5202192855453591 -2.9993706273387137
6 10
0.09933327268291003 -0.1163312243157381 0.1163312243157381
-0.1163312243157381 0.09933327268291003 0.1163312243157381
0.1163312243157381 0.1163312243157381 0.09933327268291003
6 11
-2.9993706273387137 -1.5202192855453591 -1.5202192855453591
-1.5202192855453591 -2.9993706273387155 -1.5202192855453591
-1.5202192855453591 -1.5202192855453591 -2.9993706273387137
6 12
-2.9993706273387137 1.5202192855453591 1.5202192855453591
1.5202192855453591 -2.9993706273387155 -1.5202192855453591
1.5202192855453611 -1.5202192855453591 -2.9993706273387137
6 13
0.09933327268291003 0.1163312243157381 0.1163312243157381
0.1163312243157381 0.09933327268291003 -0.1163312243157381
0.1163312243157381 -0.1163312243157381 0.09933327268291003
6 14
0.09933327268291003 -0.1163312243157381 -0.1163312243157381
-0.1163312243157381 0.09933327268291003 -0.1163312243157381
-0.1163312243157381 -0.1163312243157381 0.09933327268291003
6 15
-2.9993706273387137 -1.5202192855453591 1.5202192855453591
-1.5202192855453611 -2.9993706273387155 1.5202192855453611
1.5202192855453591 1.5202192855453591 -2.9993706273387137
6 16
0.09933327268291003 0.1163312243157381 -0.1163312243157381
0.1163312243157381 0.09933327268291003 0.1163312243157381
-0.1163312243157381 0.1163312243157381 0.09933327268291003
7 1
0.8819833324506825 0.0 0.0
-0.0 -0.3094032745457586 0.47485093913866366
0.0 0.4748509391386618 -0.3094032745457586
7 2
-0.16779009009551485 -0.0 0.0
-0.0 -0.16779009009551485 0.0
0.0 0.0 -0.16779009009551485
7 3
-0.3094032745457586 -0.4748509391386618 0.0
-0.4748509391386618 -0.3094032745457586 -0.0
-0.0 -0.0 0.8819833324506825
7 4
-0.3094032745457586 -0.0 0.4748509391386618
0.0 0.8819833324506844 -0.0
0.4748509391386618 0.0 -0.3094032745457586
7 5
-0.3094032745457586 0.0 -0.4748509391386618
0.0 0.8819833324506844 -0.0
-0.4748509391386618 0.0 -0.3094032745457586
7 6
-0.3094032745457586 0.4748509391386618 -0.0
0.4748509391386618 -0.3094032745457586 -0.0
-0.0 -0.0 0.8819833324506825
7 7
11.241585942000398 1.8897261349925716e-15 -0.0
0.0 11.241585942000402 -1.8897261349925716e-15
-0.0 -0.0 11.241585942000398
7 8
0.8819833324506825 0.0 -0.0
0.0 -0.3094032745457586 -0.4748509391386618
-0.0 -0.4748509391386618 -0.3094032745457586
7 9
-2.9993706273387137 1.5202192855453591 1.5202192855453591
1.5202192855453591 -2.9993706273387155 -1.5202192855453591
1.5202192855453611 -1.5202192855453591 -2.9993706273387137
7 10
-2.9993706273387137 -1.5202192855453591 -1.5202192855453591
-1.5202192855453591 -2.9993706273387155 -1.5202192855453591
-1.5202192855453591 -1.5202192855453591 -2.9993706273387137
7 11
0.09933327268291003 -0.1163312243157381 0.1163312243157381
-0.1163312243157381 0.09933327268291003 0.1163312243157381
0.1163312243157381 0.1163312243157381 0.09933327268291003
7 12
-2.9993706273387137 1.5202192855453591 -1.5202192855453591
1.5202192855453611 -2.9993706273387155 1.5202192855453611
-1.5202192855453591 1.5202192855453591 -2.9993706273387137
7 13
0.09933327268291003 0.1163312243157381 -0.1163312243157381
0.1163312243157381 0.09933327268291003 0.1163312243157381
-0.1163312243157381 0.1163312243157381 0.09933327268291003
7 14
-2.9993706273387137 -1.5202192855453591 1.5202192855453591
-1.5202192855453611 -2.9993706273387155 1.5202192855453611
1.5202192855453591 1.5202192855453591 -2.9993706273387137
7 15
0.09933327268291003 -0.1163312243157381 -0.1163312243157381
-0.1163312243157381 0.09933327268291003 -0.1163312243157381
-0.1163312243157381 -0.1163312243157381 0.09933327268291003
7 16
0.09933327268291003 0.1163312243157381 0.1163312243157381
0.1163312243157381 0.09933327268291003 -0.1163312243157381
0.1163312243157381 -0.1163312243157381 0.09933327268291003
8 1
-0.16779009009551485 -0.0 0.0
-0.0 -0.16779009009551485 0.0
0.0 0.0 -0.16779009009551485
8 2
0.8819833324506825 0.0 0.0
-0.0 -0.3094032745457586 0.47485093913866366
0.0 0.4748509391386618 -0.3094032745457586
8 3
-0.3094032745457586 -0.0 0.4748509391386618
0.0 0.8819833324506844 -0.0
0.4748509391386618 0.0 -0.3094032745457586
8 4
-0.3094032745457586 -0.4748509391386618 0.0
-0.4748509391386618 -0.3094032745457586 -0.0
-0.0 -0.0 0.8819833324506825
8 5
-0.3094032745457586 0.4748509391386618 -0.0
0.4748509391386618 -0.3094032745457586 -0.0
-0.0 -0.0 0.8819833324506825
8 6
-0.3094032745457586 0.0 -0.4748509391386618
0.0 0.8819833324506844 -0.0
-0.4748509391386618 0.0 -0.3094032745457586
8 7
0.8819833324506825 0.0 -0.0
0.0 -0.3094032745457586 -0.4748509391386618
-0.0 -0.4748509391386618 -0.3094032745457586
8 8
11.241585942000398 1.8897261349925716e-15 -0.0
0.0 11.241585942000402 -1.8897261349925716e-15
-0.0 -0.0 11.241585942000398
8 9
-2.9993706273387137 -1.5202192855453591 -1.5202192855453591
-1.5202192855453591 -2.9993706273387155 -1.5202192855453591
-1.5202192855453591 -1.5202192855453591 -2.9993706273387137
8 10
-2.9993706273387137 1.5202192855453591 1.5202192855453591
1.5202192855453591 -2.9993706273387155 -1.5202192855453591
1.5202192855453611 -1.5202192855453591 -2.9993706273387137
8 11
-2.9993706273387137 1.5202192855453591 -1.5202192855453591
1.5202192855453611 -2.9993706273387155 1.5202192855453611
-1.5202192855453591 1.5202192855453591 -2.9993706273387137
8 12
0.09933327268291003 -0.1163312243157381 0.1163312243157381
-0.1163312243157381 0.09933327268291003 0.1163312243157381
0.1163312243157381 0.1163312243157381 0.09933327268291003
8 13
-2.9993706273387137 -1.5202192855453591 1.5202192855453591
-1.5202192855453611 -2.9993706273387155 1.5202192855453611
1.5202192855453591 1.5202192855453591 -2.9993706273387137
8 14
0.09933327268291003 0.1163312243157381 -0.1163312243157381
0.1163312243157381 0.09933327268291003 0.1163312243157381
-0.1163312243157381 0.1163312243157381 0.09933327268291003
8 15
0.09933327268291003 0.1163312243157381 0.1163312243157381
0.1163312243157381 0.09933327268291003 -0.1163312243157381
0.1163312243157381 -0.1163312243157381 0.09933327268291003
8 16
0.09933327268291003 -0.1163312243157381 -0.1163312243157381
-0.1163312243157381 0.09933327268291003 -0.1163312243157381
-0.1163312243157381 -0.1163312243157381 0.09933327268291003
9 1
0.09933327268291003 -0.1163312243157381 -0.1163312243157381
-0.1163312243157381 0.09933327268291003 -0.1163312243157381
-0.1163312243157381 -0.1163312243157381 0.09933327268291003
9 2
0.09933327268291003 0.1163312243157381 0.1163312243157381
0.1163312243157381 0.09933327268291003 -0.1163312243157381
0.1163312243157381 -0.1163312243157381 0.09933327268291003
9 3
0.09933327268291003 0.1163312243157381 -0.1163312243157381
0.1163312243157381 0.09933327268291003 0.1163312243157381
-0.1163312243157381 0.1163312243157381 0.09933327268291003
9 4
-2.9993706273387137 -1.5202192855453591 1.5202192855453591
-1.5202192855453611 -2.9993706273387155 1.5202192855453611
1.5202192855453591 1.5202192855453591 -2.9993706273387137
9 5
0.09933327268291003 -0.1163312243157381 0.1163312243157381
-0.1163312243157381 0.09933327268291003 0.1163312243157381
0.1163312243157381 0.1163312243157381 0.09933327268291003
9 6
-2.9993706273387137 1.5202192855453591 -1.5202192855453591
1.5202192855453611 -2.9993706273387155 1.5202192855453611
-1.5202192855453591 1.5202192855453591 -2.9993706273387137
9 7
-2.9993706273387137 1.5202192855453591 1.5202192855453611
1.5202192855453611 -2.9993706273387155 -1.5202192855453591
1.5202192855453591 -1.5202192855453591 -2.9993706273387137
9 8
-2.9993706273387137 -1.5202192855453591 -1.5202192855453591
-1.5202192855453591 -2.9993706273387137 -1.5202192855453591
-1.5202192855453591 -1.5202192855453591 -2.9993706273387137
9 9
11.241585942000398 -0.0 -0.0
0.0 11.241585942000402 -1.8897261349925716e-15
-0.0 -1.8897261349925716e-15 11.241585942000398
9 10
0.8819833324506825 0.0 0.0
0.0 -0.3094032745457586 -0.4748509391386618
0.0 -0.4748509391386618 -0.3094032745457586
9 11
-0.3094032745457586 -0.0 -0.4748509391386618
0.0 0.8819833324506844 -0.0
-0.4748509391386618 0.0 -0.3094032745457586
9 12
-0.3094032745457586 0.4748509391386618 -0.0
0.4748509391386618 -0.3094032745457586 -0.0
-0.0 -0.0 0.8819833324506825
9 13
-0.3094032745457586 -0.4748509391386618 -0.0
-0.47485093913866366 -0.3094032745457586 -0.0
-0.0 -0.0 0.8819833324506825
9 14
-0.3094032745457586 -0.0 0.4748509391386618
0.0 0.8819833324506844 -0.0
0.4748509391386618 0.0 -0.3094032745457586
9 15
0.8819833324506825 0.0 -0.0
-0.0 -0.3094032745457586 0.4748509391386618
0.0 0.4748509391386618 -0.3094032745457586
9 16
-0.16779009009551485 0.0 0.0
-0.0 -0.16779009009551485 0.0
0.0 0.0 -0.16779009009551485
10 1
0.09933327268291003 0.1163312243157381 0.1163312243157381
0.1163312243157381 0.09933327268291003 -0.1163312243157381
0.1163312243157381 -0.1163312243157381 0.09933327268291003
10 2
0.09933327268291003 -0.1163312243157381 -0.1163312243157381
-0.1163312243157381 0.09933327268291003 -0.1163312243157381
-0.1163312243157381 -0.1163312243157381 0.09933327268291003
10 3
-2.9993706273387137 -1.5202192855453591 1.5202192855453611
-1.5202192855453611 -2.9993706273387155 1.5202192855453611
1.5202192855453611 1.5202192855453591 -2.9993706273387137
10 4
0.09933327268291003 0.1163312243157381 -0.1163312243157381
0.1163312243157381 0.09933327268291003 0.1163312243157381
-0.1163312243157381 0.1163312243157381 0.09933327268291003
10 5
-2.9993706273387137 1.5202192855453591 -1.5202192855453591
1.5202192855453611 -2.9993706273387155 1.5202192855453611
-1.5202192855453591 1.5202192855453591 -2.9993706273387137
10 6
0.09933327268291003 -0.1163312243157381 0.1163312243157381
-0.1163312243157381 0.09933327268291003 0.1163312243157381
0.1163312243157381 0.1163312243157381 0.09933327268291003
10 7
-2.9993706273387137 -1.5202192855453591 -1.5202192855453591
-1.5202192855453591 -2.9993706273387137 -1.5202192855453591
-1.5202192855453591 -1.5202192855453591 -2.9993706273387137
10 8
-2.9993706273387137 1.5202192855453591 1.5202192855453611
1.5202192855453591 -2.9993706273387155 -1.5202192855453591
1.5202192855453591 -1.5202192855453591 -2.9993706273387137
10 9
0.8819833324506825 0.0 0.0
0.0 -0.3094032745457586 -0.4748509391386618
-0.0 -0.4748509391386618 -0.3094032745457586
10 10
11.241585942000398 0.0 -0.0
1.8897261349925716e-15 11.241585942000402 -1.8897261349925716e-15
-1.8897261349925716e-15 -3.779452269985143e-15 11.241585942000398
10 11
-0.3094032745457586 0.4748509391386618 -0.0
0.4748509391386618 -0.3094032745457586 -0.0
-0.0 -0.0 0.8819833324506825
10 12
-0.3094032745457586 0.0 -0.4748509391386618
0.0 0.8819833324506844 -0.0
-0.4748509391386618 -0.0 -0.3094032745457586
10 13
-0.3094032745457586 -0.0 0.4748509391386618
-0.0 0.8819833324506844 -0.0
0.4748509391386618 0.0 -0.3094032745457586
10 14
-0.3094032745457586 -0.4748509391386618 -0.0
-0.47485093913866366 -0.3094032745457586 -0.0
-0.0 -0.0 0.8819833324506825
10 15
-0.16779009009551485 -0.0 0.0
-0.0 -0.16779009009551485 0.0
0.0 0.0 -0.16779009009551485
10 16
0.8819833324506825 0.0 -0.0
-0.0 -0.3094032745457586 0.4748509391386618
0.0 0.4748509391386618 -0.3094032745457586
11 1
0.09933327268291003 0.1163312243157381 -0.1163312243157381
0.1163312243157381 0.09933327268291003 0.1163312243157381
-0.1163312243157381 0.1163312243157381 0.09933327268291003
11 2
-2.9993706273387137 -1.5202192855453591 1.5202192855453611
-1.5202192855453611 -2.9993706273387155 1.5202192855453611
1.5202192855453611 1.5202192855453591 -2.9993706273387137
11 3
0.09933327268291003 -0.1163312243157381 -0.1163312243157381
-0.1163312243157381 0.09933327268291003 -0.1163312243157381
-0.1163312243157381 -0.1163312243157381 0.09933327268291003
11 4
0.09933327268291003 0.1163312243157381 0.1163312243157381
0.1163312243157381 0.09933327268291003 -0.1163312243157381
0.1163312243157381 -0.1163312243157381 0.09933327268291003
11 5
-2.9993706273387137 1.5202192855453591 1.5202192855453611
1.5202192855453591 -2.9993706273387155 -1.5202192855453591
1.5202192855453591 -1.5202192855453591 -2.9993706273387137
11 6
-2.9993706273387137 -1.5202192855453591 -1.5202192855453591
-1.5202192855453591 -2.9993706273387137 -1.5202192855453591
-1.5202192855453591 -1.5202192855453591 -2.9993706273387137
11 7
0.09933327268291003 -0.1163312243157381 0.1163312243157381
-0.1163312243157381 0.09933327268291003 0.1163312243157381
0.1163312243157381 0.1163312243157381 0.09933327268291003
11 8
-2.9993706273387137 1.5202192855453591 -1.5202192855453591
1.5202192855453611 -2.9993706273387155 1.5202192855453611
-1.5202192855453591 1.5202192855453591 -2.9993706273387137
11 9
-0.3094032745457586 0.0 -0.4748509391386618
0.0 0.8819833324506844 -0.0
-0.4748509391386618 -0.0 -0.3094032745457586
11 10
-0.3094032745457586 0.4748509391386618 -0.0
0.4748509391386618 -0.3094032745457586 -0.0
-0.0 -0.0 0.8819833324506825
11 11
11.241585942000398 0.0 -0.0
1.8897261349925716e-15 11.241585942000402 -1.8897261349925716e-15
-1.8897261349925716e-15 -3.779452269985143e-15 11.241585942000398
11 12
0.8819833324506825 0.0 0.0
0.0 -0.3094032745457586 -0.4748509391386618
-0.0 -0.4748509391386618 -0.3094032745457586
11 13
0.8819833324506825 0.0 -0.0
-0.0 -0.3094032745457586 0.4748509391386618
0.0 0.4748509391386618 -0.3094032745457586
11 14
-0.16779009009551485 -0.0 0.0
-0.0 -0.16779009009551485 0.0
0.0 0.0 -0.16779009009551485
11 15
-0.3094032745457586 -0.4748509391386618 -0.0
-0.47485093913866366 -0.3094032745457586 -0.0
-0.0 -0.0 0.8819833324506825
11 16
-0.3094032745457586 -0.0 0.4748509391386618
-0.0 0.8819833324506844 -0.0
0.4748509391386618 0.0 -0.3094032745457586
12 1
-2.9993706273387137 -1.5202192855453591 1.5202192855453611
-1.5202192855453611 -2.9993706273387155 1.5202192855453611
1.5202192855453611 1.5202192855453591 -2.9993706273387137
12 2
0.09933327268291003 0.1163312243157381 -0.1163312243157381
0.1163312243157381 0.09933327268291003 0.1163312243157381
-0.1163312243157381 0.1163312243157381 0.09933327268291003
12 3
0.09933327268291003 0.1163312243157381 0.1163312243157381
0.1163312243157381 0.09933327268291003 -0.1163312243157381
0.1163312243157381 -0.1163312243157381 0.09933327268291003
12 4
0.09933327268291003 -0.1163312243157381 -0.1163312243157381
-0.1163312243157381 0.09933327268291003 -0.1163312243157381
-0.1163312243157381 -0.1163312243157381 0.09933327268291003
12 5
-2.9993706273387137 -1.5202192855453591 -1.5202192855453591
-1.5202192855453591 -2.9993706273387137 -1.5202192855453591
-1.5202192855453591 -1.5202192855453591 -2.9993706273387137
12 6
-2.9993706273387137 1.5202192855453591 1.5202192855453611
1.5202192855453591 -2.9993706273387155 -1.5202192855453591
1.5202192855453591 -1.5202192855453591 -2.9993706273387137
12 7
-2.9993706273387137 1.5202192855453591 -1.5202192855453591
1.5202192855453611 -2.9993706273387155 1.5202192855453611
-1.5202192855453591 1.5202192855453591 -2.9993706273387137
12 8
0.09933327268291003 -0.1163312243157381 0.1163312243157381
-0.1163312243157381 0.09933327268291003 0.1163312243157381
0.1163312243157381 0.1163312243157381 0.09933327268291003
12 9
-0.3094032745457586 0.4748509391386618 -0.0
0.4748509391386618 -0.3094032745457586 -0.0
-0.0 -0.0 0.8819833324506825
12 10
-0.3094032745457586 0.0 -0.4748509391386618
0.0 0.8819833324506844 -0.0
-0.4748509391386618 -0.0 -0.3094032745457586
12 11
0.8819833324506825 0.0 0.0
0.0 -0.3094032745457586 -0.4748509391386618
-0.0 -0.4748509391386618 -0.3094032745457586
12 12
11.241585942000398 0.0 -0.0
1.8897261349925716e-15 11.241585942000402 -1.8897261349925716e-15
-1.8897261349925716e-15 -3.779452269985143e-15 11.241585942000398
12 13
-0.16779009009551485 -0.0 0.0
-0.0 -0.16779009009551485 0.0
0.0 0.0 -0.16779009009551485
12 14
0.8819833324506825 0.0 -0.0
-0.0 -0.3094032745457586 0.4748509391386618
0.0 0.4748509391386618 -0.3094032745457586
12 15
-0.3094032745457586 -0.0 0.4748509391386618
-0.0 0.8819833324506844 -0.0
0.4748509391386618 0.0 -0.3094032745457586
12 16
-0.3094032745457586 -0.4748509391386618 -0.0
-0.47485093913866366 -0.3094032745457586 -0.0
-0.0 -0.0 0.8819833324506825
13 1
0.09933327268291003 -0.1163312243157381 0.1163312243157381
-0.1163312243157381 0.09933327268291003 0.1163312243157381
0.1163312243157381 0.1163312243157381 0.09933327268291003
13 2
-2.9993706273387137 1.5202192855453591 -1.5202192855453591
1.5202192855453611 -2.9993706273387155 1.5202192855453611
-1.5202192855453591 1.5202192855453591 -2.9993706273387137
13 3
-2.9993706273387137 1.5202192855453591 1.5202192855453611
1.5202192855453591 -2.9993706273387155 -1.5202192855453591
1.5202192855453591 -1.5202192855453591 -2.9993706273387137
13 4
-2.9993706273387137 -1.5202192855453591 -1.5202192855453591
-1.5202192855453591 -2.9993706273387137 -1.5202192855453591
-1.5202192855453591 -1.5202192855453591 -2.9993706273387137
13 5
0.09933327268291003 -0.1163312243157381 -0.1163312243157381
-0.1163312243157381 0.09933327268291003 -0.1163312243157381
-0.1163312243157381 -0.1163312243157381 0.09933327268291003
13 6
0.09933327268291003 0.1163312243157381 0.1163312243157381
0.1163312243157381 0.09933327268291003 -0.1163312243157381
0.1163312243157381 -0.1163312243157381 0.09933327268291003