<PP_INFO>
Generated using Vanderbilt code, version   7  3  2                              
Author: Yi Yao     Generation date:    0    0    0                              
Automatically converted from original format                                    
    0        The Pseudo was generated with a Non-Relativistic Calculation
nl pn  l   occ               Rcut            Rcut US             E pseu
0S  0  0  2.00      0.00000000000      0.00000000000      0.00000000000
0P  0  1  2.00      0.00000000000      0.00000000000      0.00000000000
0D  0  2  0.00      0.00000000000      0.00000000000      0.00000000000
</PP_INFO>


<PP_HEADER>
   0                   Version Number
  Si                   Element
   NC                  Norm - Conserving pseudopotential
    F                  Nonlinear Core Correction
SLA PW SCAN SCAN   SCAN Exchange-Correlation functional
    4.00000000000      Z valence
    0.00000000000      Total energy
    0.00000    0.00000 Suggested cutoff for wfc and rho
    1                  Max angular momentum component
 1475                  Number of points in mesh
    3    2             Number of Wavefunctions, Number of Projectors
 Wavefunctions         nl  l   occ
                       0S  0  2.00
                       0P  1  2.00
                       0D  2  0.00
</PP_HEADER>


<PP_MESH>
  <PP_R>
  2.39616162788E-05  2.42024345260E-05  2.44456730368E-05  2.46913561353E-05
  2.49395083900E-05  2.51901546163E-05  2.54433198791E-05  2.56990294950E-05
  2.59573090354E-05  2.62181843282E-05  2.64816814614E-05  2.67478267847E-05
  2.70166469130E-05  2.72881687286E-05  2.75624193837E-05  2.78394263038E-05
  2.81192171896E-05  2.84018200207E-05  2.86872630574E-05  2.89755748443E-05
  2.92667842128E-05  2.95609202842E-05  2.98580124722E-05  3.01580904864E-05
  3.04611843347E-05  3.07673243268E-05  3.10765410771E-05  3.13888655073E-05
  3.17043288502E-05  3.20229626524E-05  3.23447987776E-05  3.26698694096E-05
  3.29982070558E-05  3.33298445502E-05  3.36648150568E-05  3.40031520730E-05
  3.43448894327E-05  3.46900613100E-05  3.50387022224E-05  3.53908470341E-05
  3.57465309600E-05  3.61057895689E-05  3.64686587867E-05  3.68351749009E-05
  3.72053745632E-05  3.75792947940E-05  3.79569729856E-05  3.83384469061E-05
  3.87237547033E-05  3.91129349082E-05  3.95060264391E-05  3.99030686057E-05
  4.03041011123E-05  4.07091640627E-05  4.11182979634E-05  4.15315437281E-05
  4.19489426819E-05  4.23705365648E-05  4.27963675367E-05  4.32264781811E-05
  4.36609115093E-05  4.40997109650E-05  4.45429204285E-05  4.49905842213E-05
  4.54427471099E-05  4.58994543111E-05  4.63607514960E-05  4.68266847947E-05
  4.72973008009E-05  4.77726465766E-05  4.82527696567E-05  4.87377180540E-05
  4.92275402638E-05  4.97222852686E-05  5.02220025433E-05  5.07267420602E-05
  5.12365542935E-05  5.17514902250E-05  5.22716013486E-05  5.27969396759E-05
  5.33275577412E-05  5.38635086067E-05  5.44048458679E-05  5.49516236591E-05
  5.55038966584E-05  5.60617200936E-05  5.66251497476E-05  5.71942419637E-05
  5.77690536517E-05  5.83496422932E-05  5.89360659476E-05  5.95283832576E-05
  6.01266534556E-05  6.07309363691E-05  6.13412924267E-05  6.19577826648E-05
  6.25804687327E-05  6.32094128997E-05  6.38446780606E-05  6.44863277426E-05
  6.51344261110E-05  6.57890379764E-05  6.64502288004E-05  6.71180647026E-05
  6.77926124672E-05  6.84739395496E-05  6.91621140830E-05  6.98572048854E-05
  7.05592814665E-05  7.12684140346E-05  7.19846735035E-05  7.27081314997E-05
  7.34388603696E-05  7.41769331868E-05  7.49224237591E-05  7.56754066363E-05
  7.64359571171E-05  7.72041512574E-05  7.79800658771E-05  7.87637785684E-05
  7.95553677032E-05  8.03549124411E-05  8.11624927371E-05  8.19781893501E-05
  8.28020838503E-05  8.36342586279E-05  8.44747969011E-05  8.53237827244E-05
  8.61813009970E-05  8.70474374716E-05  8.79222787624E-05  8.88059123544E-05
  8.96984266116E-05  9.05999107862E-05  9.15104550274E-05  9.24301503904E-05
  9.33590888455E-05  9.42973632872E-05  9.52450675438E-05  9.62022963866E-05
  9.71691455391E-05  9.81457116872E-05  9.91320924883E-05  1.00128386581E-04
  1.01134693596E-04  1.02151114165E-04  1.03177749930E-04  1.04214703556E-04
  1.05262078740E-04  1.06319980219E-04  1.07388513784E-04  1.08467786291E-04
  1.09557905666E-04  1.10658980923E-04  1.11771122171E-04  1.12894440624E-04
  1.14029048615E-04  1.15175059606E-04  1.16332588199E-04  1.17501750148E-04
  1.18682662370E-04  1.19875442956E-04  1.21080211187E-04  1.22297087540E-04
  1.23526193704E-04  1.24767652590E-04  1.26021588345E-04  1.27288126364E-04
  1.28567393302E-04  1.29859517086E-04  1.31164626931E-04  1.32482853347E-04
  1.33814328159E-04  1.35159184515E-04  1.36517556902E-04  1.37889581159E-04
  1.39275394489E-04  1.40675135474E-04  1.42088944090E-04  1.43516961719E-04
  1.44959331164E-04  1.46416196663E-04  1.47887703903E-04  1.49374000037E-04
  1.50875233695E-04  1.52391555003E-04  1.53923115593E-04  1.55470068623E-04
  1.57032568789E-04  1.58610772343E-04  1.60204837106E-04  1.61814922487E-04
  1.63441189494E-04  1.65083800757E-04  1.66742920538E-04  1.68418714749E-04
  1.70111350973E-04  1.71820998473E-04  1.73547828216E-04  1.75292012887E-04
  1.77053726905E-04  1.78833146443E-04  1.80630449445E-04  1.82445815642E-04
  1.84279426573E-04  1.86131465601E-04  1.88002117930E-04  1.89891570627E-04
  1.91800012640E-04  1.93727634813E-04  1.95674629912E-04  1.97641192637E-04
  1.99627519645E-04  2.01633809573E-04  2.03660263049E-04  2.05707082721E-04
  2.07774473272E-04  2.09862641445E-04  2.11971796056E-04  2.14102148023E-04
  2.16253910384E-04  2.18427298316E-04  2.20622529160E-04  2.22839822440E-04
  2.25079399889E-04  2.27341485465E-04  2.29626305379E-04  2.31934088115E-04
  2.34265064453E-04  2.36619467493E-04  2.38997532677E-04  2.41399497813E-04
  2.43825603100E-04  2.46276091150E-04  2.48751207015E-04  2.51251198208E-04
  2.53776314730E-04  2.56326809095E-04  2.58902936355E-04  2.61504954124E-04
  2.64133122606E-04  2.66787704621E-04  2.69468965628E-04  2.72177173757E-04
  2.74912599829E-04  2.77675517391E-04  2.80466202736E-04  2.83284934935E-04
  2.86131995864E-04  2.89007670230E-04  2.91912245605E-04  2.94846012447E-04
  2.97809264136E-04  3.00802297000E-04  3.03825410344E-04  3.06878906482E-04
  3.09963090767E-04  3.13078271619E-04  3.16224760559E-04  3.19402872239E-04
  3.22612924472E-04  3.25855238267E-04  3.29130137857E-04  3.32437950735E-04
  3.35779007685E-04  3.39153642815E-04  3.42562193593E-04  3.46005000875E-04
  3.49482408946E-04  3.52994765549E-04  3.56542421922E-04  3.60125732835E-04
  3.63745056621E-04  3.67400755216E-04  3.71093194193E-04  3.74822742799E-04
  3.78589773991E-04  3.82394664476E-04  3.86237794746E-04  3.90119549117E-04
  3.94040315769E-04  3.98000486780E-04  4.02000458172E-04  4.06040629944E-04
  4.10121406118E-04  4.14243194774E-04  4.18406408095E-04  4.22611462406E-04
  4.26858778215E-04  4.31148780257E-04  4.35481897537E-04  4.39858563369E-04
  4.44279215424E-04  4.48744295772E-04  4.53254250922E-04  4.57809531875E-04
  4.62410594164E-04  4.67057897896E-04  4.71751907808E-04  4.76493093304E-04
  4.81281928506E-04  4.86118892302E-04  4.91004468393E-04  4.95939145339E-04
  5.00923416613E-04  5.05957780647E-04  5.11042740880E-04  5.16178805813E-04
  5.21366489056E-04  5.26606309383E-04  5.31898790780E-04  5.37244462500E-04
  5.42643859113E-04  5.48097520564E-04  5.53605992224E-04  5.59169824945E-04
  5.64789575114E-04  5.70465804711E-04  5.76199081364E-04  5.81989978406E-04
  5.87839074930E-04  5.93746955852E-04  5.99714211964E-04  6.05741439997E-04
  6.11829242678E-04  6.17978228794E-04  6.24189013248E-04  6.30462217123E-04
  6.36798467746E-04  6.43198398745E-04  6.49662650121E-04  6.56191868303E-04
  6.62786706219E-04  6.69447823358E-04  6.76175885836E-04  6.82971566467E-04
  6.89835544824E-04  6.96768507310E-04  7.03771147228E-04  7.10844164846E-04
  7.17988267474E-04  7.25204169526E-04  7.32492592600E-04  7.39854265544E-04
  7.47289924530E-04  7.54800313132E-04  7.62386182394E-04  7.70048290910E-04
  7.77787404897E-04  7.85604298272E-04  7.93499752732E-04  8.01474557828E-04
  8.09529511048E-04  8.17665417893E-04  8.25883091962E-04  8.34183355028E-04
  8.42567037125E-04  8.51034976628E-04  8.59588020337E-04  8.68227023565E-04
  8.76952850219E-04  8.85766372889E-04  8.94668472934E-04  9.03660040572E-04
  9.12741974967E-04  9.21915184320E-04  9.31180585960E-04  9.40539106434E-04
  9.49991681603E-04  9.59539256732E-04  9.69182786586E-04  9.78923235526E-04
  9.88761577606E-04  9.98698796667E-04  1.00873588644E-03  1.01887385064E-03
  1.02911370308E-03  1.03945646774E-03  1.04990317892E-03  1.06045488129E-03
  1.07111263003E-03  1.08187749093E-03  1.09275054048E-03  1.10373286599E-03
  1.11482556571E-03  1.12602974892E-03  1.13734653604E-03  1.14877705876E-03
  1.16032246014E-03  1.17198389474E-03  1.18376252870E-03  1.19565953990E-03
  1.20767611805E-03  1.21981346482E-03  1.23207279395E-03  1.24445533139E-03
  1.25696231540E-03  1.26959499669E-03  1.28235463854E-03  1.29524251691E-03
  1.30825992062E-03  1.32140815142E-03  1.33468852412E-03  1.34810236680E-03
  1.36165102083E-03  1.37533584110E-03  1.38915819610E-03  1.40311946808E-03
  1.41722105317E-03  1.43146436155E-03  1.44585081756E-03  1.46038185985E-03
  1.47505894155E-03  1.48988353037E-03  1.50485710879E-03  1.51998117417E-03
  1.53525723893E-03  1.55068683070E-03  1.56627149245E-03  1.58201278265E-03
  1.59791227544E-03  1.61397156079E-03  1.63019224465E-03  1.64657594909E-03
  1.66312431249E-03  1.67983898971E-03  1.69672165224E-03  1.71377398834E-03
  1.73099770326E-03  1.74839451940E-03  1.76596617645E-03  1.78371443159E-03
  1.80164105966E-03  1.81974785333E-03  1.83803662331E-03  1.85650919848E-03
  1.87516742612E-03  1.89401317206E-03  1.91304832090E-03  1.93227477617E-03
  1.95169446052E-03  1.97130931595E-03  1.99112130395E-03  2.01113240574E-03
  2.03134462244E-03  2.05175997530E-03  2.07238050587E-03  2.09320827622E-03
  2.11424536914E-03  2.13549388835E-03  2.15695595874E-03  2.17863372652E-03
  2.20052935948E-03  2.22264504722E-03  2.24498300131E-03  2.26754545558E-03
  2.29033466628E-03  2.31335291235E-03  2.33660249564E-03  2.36008574113E-03
  2.38380499717E-03  2.40776263568E-03  2.43196105247E-03  2.45640266739E-03
  2.48108992462E-03  2.50602529292E-03  2.53121126583E-03  2.55665036198E-03
  2.58234512529E-03  2.60829812527E-03  2.63451195723E-03  2.66098924259E-03
  2.68773262908E-03  2.71474479108E-03  2.74202842983E-03  2.76958627369E-03
  2.79742107850E-03  2.82553562774E-03  2.85393273290E-03  2.88261523372E-03
  2.91158599845E-03  2.94084792422E-03  2.97040393723E-03  3.00025699310E-03
  3.03041007718E-03  3.06086620479E-03  3.09162842157E-03  3.12269980377E-03
  3.15408345855E-03  3.18578252431E-03  3.21780017097E-03  3.25013960033E-03
  3.28280404636E-03  3.31579677553E-03  3.34912108714E-03  3.38278031365E-03
  3.41677782101E-03  3.45111700900E-03  3.48580131157E-03  3.52083419718E-03
  3.55621916913E-03  3.59195976597E-03  3.62805956178E-03  3.66452216657E-03
  3.70135122662E-03  3.73855042489E-03  3.77612348131E-03  3.81407415323E-03
  3.85240623574E-03  3.89112356208E-03  3.93023000403E-03  3.96972947225E-03
  4.00962591672E-03  4.04992332713E-03  4.09062573325E-03  4.13173720535E-03
  4.17326185461E-03  4.21520383353E-03  4.25756733635E-03  4.30035659946E-03
  4.34357590180E-03  4.38722956536E-03  4.43132195553E-03  4.47585748158E-03
  4.52084059712E-03  4.56627580048E-03  4.61216763523E-03  4.65852069058E-03
  4.70533960189E-03  4.75262905107E-03  4.80039376712E-03  4.84863852655E-03
  4.89736815388E-03  4.94658752210E-03  4.99630155319E-03  5.04651521860E-03
  5.09723353974E-03  5.14846158848E-03  5.20020448767E-03  5.25246741165E-03
  5.30525558674E-03  5.35857429181E-03  5.41242885877E-03  5.46682467314E-03
  5.52176717452E-03  5.57726185723E-03  5.63331427076E-03  5.68993002042E-03
  5.74711476782E-03  5.80487423149E-03  5.86321418742E-03  5.92214046966E-03
  5.98165897087E-03  6.04177564297E-03  6.10249649767E-03  6.16382760710E-03
  6.22577510443E-03  6.28834518446E-03  6.35154410424E-03  6.41537818373E-03
  6.47985380639E-03  6.54497741982E-03  6.61075553645E-03  6.67719473415E-03
  6.74430165688E-03  6.81208301540E-03  6.88054558789E-03  6.94969622068E-03
  7.01954182888E-03  7.09008939712E-03  7.16134598020E-03  7.23331870385E-03
  7.30601476540E-03  7.37944143451E-03  7.45360605391E-03  7.52851604013E-03
  7.60417888423E-03  7.68060215256E-03  7.75779348750E-03  7.83576060825E-03
  7.91451131160E-03  7.99405347267E-03  8.07439504575E-03  8.15554406506E-03
  8.23750864558E-03  8.32029698382E-03  8.40391735870E-03  8.48837813231E-03
  8.57368775082E-03  8.65985474524E-03  8.74688773236E-03  8.83479541553E-03
  8.92358658561E-03  9.01327012179E-03  9.10385499249E-03  9.19535025627E-03
  9.28776506274E-03  9.38110865346E-03  9.47539036287E-03  9.57061961920E-03
  9.66680594547E-03  9.76395896039E-03  9.86208837935E-03  9.96120401536E-03
  1.00613157801E-02  1.01624336848E-02  1.02645678413E-02  1.03677284631E-02
  1.04719258665E-02  1.05771704711E-02  1.06834728016E-02  1.07908434883E-02
  1.08992932683E-02  1.10088329868E-02  1.11194735977E-02  1.12312261653E-02
  1.13441018648E-02  1.14581119839E-02  1.15732679238E-02  1.16895812002E-02
  1.18070634444E-02  1.19257264048E-02  1.20455819478E-02  1.21666420590E-02
  1.22889188445E-02  1.24124245322E-02  1.25371714726E-02  1.26631721407E-02
  1.27904391365E-02  1.29189851869E-02  1.30488231466E-02  1.31799659995E-02
  1.33124268600E-02  1.34462189742E-02  1.35813557215E-02  1.37178506158E-02
  1.38557173065E-02  1.39949695805E-02  1.41356213631E-02  1.42776867197E-02
  1.44211798568E-02  1.45661151239E-02  1.47125070146E-02  1.48603701684E-02
  1.50097193715E-02  1.51605695591E-02  1.53129358162E-02  1.54668333797E-02
  1.56222776394E-02  1.57792841400E-02  1.59378685820E-02  1.60980468242E-02
  1.62598348846E-02  1.64232489419E-02  1.65883053378E-02  1.67550205781E-02
  1.69234113344E-02  1.70934944460E-02  1.72652869212E-02  1.74388059395E-02
  1.76140688530E-02  1.77910931880E-02  1.79698966471E-02  1.81504971109E-02
  1.83329126395E-02  1.85171614747E-02  1.87032620415E-02  1.88912329500E-02
  1.90810929976E-02  1.92728611703E-02  1.94665566453E-02  1.96621987921E-02
  1.98598071752E-02  2.00594015556E-02  2.02610018928E-02  2.04646283472E-02
  2.06703012814E-02  2.08780412629E-02  2.10878690660E-02  2.12998056736E-02
  2.15138722794E-02  2.17300902905E-02  2.19484813287E-02  2.21690672332E-02
  2.23918700630E-02  2.26169120985E-02  2.28442158440E-02  2.30738040302E-02
  2.33056996159E-02  2.35399257911E-02  2.37765059784E-02  2.40154638362E-02
  2.42568232604E-02  2.45006083871E-02  2.47468435950E-02  2.49955535079E-02
  2.52467629971E-02  2.55004971835E-02  2.57567814409E-02  2.60156413980E-02
  2.62771029408E-02  2.65411922159E-02  2.68079356322E-02  2.70773598645E-02
  2.73494918554E-02  2.76243588182E-02  2.79019882399E-02  2.81824078837E-02
  2.84656457918E-02  2.87517302881E-02  2.90406899815E-02  2.93325537680E-02
  2.96273508344E-02  2.99251106605E-02  3.02258630227E-02  3.05296379963E-02
  3.08364659592E-02  3.11463775944E-02  3.14594038933E-02  3.17755761588E-02
  3.20949260084E-02  3.24174853773E-02  3.27432865218E-02  3.30723620222E-02
  3.34047447864E-02  3.37404680529E-02  3.40795653944E-02  3.44220707207E-02
  3.47680182829E-02  3.51174426758E-02  3.54703788422E-02  3.58268620761E-02
  3.61869280261E-02  3.65506126990E-02  3.69179524637E-02  3.72889840544E-02
  3.76637445745E-02  3.80422715005E-02  3.84246026853E-02  3.88107763625E-02
  3.92008311496E-02  3.95948060525E-02  3.99927404690E-02  4.03946741928E-02
  4.08006474178E-02  4.12107007415E-02  4.16248751696E-02  4.20432121199E-02
  4.24657534264E-02  4.28925413437E-02  4.33236185509E-02  4.37590281560E-02
  4.41988137004E-02  4.46430191631E-02  4.50916889648E-02  4.55448679730E-02
  4.60026015059E-02  4.64649353374E-02  4.69319157011E-02  4.74035892955E-02
  4.78800032883E-02  4.83612053213E-02  4.88472435152E-02  4.93381664741E-02
  4.98340232908E-02  5.03348635513E-02  5.08407373402E-02  5.13516952451E-02
  5.18677883624E-02  5.23890683017E-02  5.29155871916E-02  5.34473976842E-02
  5.39845529611E-02  5.45271067383E-02  5.50751132717E-02  5.56286273622E-02
  5.61877043619E-02  5.67524001788E-02  5.73227712830E-02  5.78988747122E-02
  5.84807680770E-02  5.90685095674E-02  5.96621579579E-02  6.02617726140E-02
  6.08674134976E-02  6.14791411732E-02  6.20970168142E-02  6.27211022086E-02
  6.33514597655E-02  6.39881525212E-02  6.46312441454E-02  6.52807989479E-02
  6.59368818848E-02  6.65995585647E-02  6.72688952560E-02  6.79449588929E-02
  6.86278170823E-02  6.93175381106E-02  7.00141909505E-02  7.07178452678E-02
  7.14285714286E-02  7.21464405060E-02  7.28715242876E-02  7.36038952824E-02
  7.43436267280E-02  7.50907925983E-02  7.58454676104E-02  7.66077272324E-02
  7.73776476911E-02  7.81553059789E-02  7.89407798625E-02  7.97341478899E-02
  8.05354893985E-02  8.13448845232E-02  8.21624142041E-02  8.29881601949E-02
  8.38222050708E-02  8.46646322372E-02  8.55155259373E-02  8.63749712612E-02
  8.72430541543E-02  8.81198614255E-02  8.90054807562E-02  8.99000007092E-02
  9.08035107372E-02  9.17161011920E-02  9.26378633333E-02  9.35688893381E-02
  9.45092723098E-02  9.54591062875E-02  9.64184862554E-02  9.73875081523E-02
  9.83662688811E-02  9.93548663188E-02  1.00353399326E-01  1.01361967757E-01
  1.02380672469E-01  1.03409615333E-01  1.04448899245E-01  1.05498628134E-01
  1.06558906974E-01  1.07629841794E-01  1.08711539687E-01  1.09804108825E-01
  1.10907658465E-01  1.12022298964E-01  1.13148141785E-01  1.14285299516E-01
  1.15433885871E-01  1.16594015711E-01  1.17765805050E-01  1.18949371068E-01
  1.20144832121E-01  1.21352307758E-01  1.22571918727E-01  1.23803786991E-01
  1.25048035735E-01  1.26304789388E-01  1.27574173625E-01  1.28856315386E-01
  1.30151342885E-01  1.31459385627E-01  1.32780574418E-01  1.34115041376E-01
  1.35462919950E-01  1.36824344930E-01  1.38199452457E-01  1.39588380045E-01
  1.40991266588E-01  1.42408252375E-01  1.43839479105E-01  1.45285089903E-01
  1.46745229332E-01  1.48220043405E-01  1.49709679607E-01  1.51214286901E-01
  1.52734015750E-01  1.54269018127E-01  1.55819447536E-01  1.57385459018E-01
  1.58967209178E-01  1.60564856191E-01  1.62178559824E-01  1.63808481447E-01
  1.65454784056E-01  1.67117632280E-01  1.68797192408E-01  1.70493632395E-01
  1.72207121887E-01  1.73937832235E-01  1.75685936511E-01  1.77451609527E-01
  1.79235027853E-01  1.81036369830E-01  1.82855815595E-01  1.84693547094E-01
  1.86549748102E-01  1.88424604240E-01  1.90318302995E-01  1.92231033739E-01
  1.94162987747E-01  1.96114358215E-01  1.98085340283E-01  2.00076131050E-01
  2.02086929597E-01  2.04117937005E-01  2.06169356376E-01  2.08241392855E-01
  2.10334253648E-01  2.12448148040E-01  2.14583287425E-01  2.16739885317E-01
  2.18918157378E-01  2.21118321437E-01  2.23340597513E-01  2.25585207835E-01
  2.27852376865E-01  2.30142331323E-01  2.32455300206E-01  2.34791514813E-01
  2.37151208767E-01  2.39534618039E-01  2.41941980973E-01  2.44373538306E-01
  2.46829533197E-01  2.49310211247E-01  2.51815820526E-01  2.54346611597E-01
  2.56902837541E-01  2.59484753982E-01  2.62092619116E-01  2.64726693729E-01
  2.67387241233E-01  2.70074527683E-01  2.72788821812E-01  2.75530395050E-01
  2.78299521557E-01  2.81096478248E-01  2.83921544821E-01  2.86775003785E-01
  2.89657140489E-01  2.92568243148E-01  2.95508602875E-01  2.98478513709E-01
  3.01478272643E-01  3.04508179655E-01  3.07568537739E-01  3.10659652933E-01
  3.13781834351E-01  3.16935394215E-01  3.20120647881E-01  3.23337913880E-01
  3.26587513939E-01  3.29869773021E-01  3.33185019356E-01  3.36533584471E-01
  3.39915803224E-01  3.43332013841E-01  3.46782557946E-01  3.50267780595E-01
  3.53788030314E-01  3.57343659131E-01  3.60935022612E-01  3.64562479895E-01
  3.68226393731E-01  3.71927130513E-01  3.75665060318E-01  3.79440556942E-01
  3.83253997937E-01  3.87105764652E-01  3.90996242266E-01  3.94925819830E-01
  3.98894890305E-01  4.02903850602E-01  4.06953101619E-01  4.11043048286E-01
  4.15174099600E-01  4.19346668670E-01  4.23561172757E-01  4.27818033313E-01
  4.32117676029E-01  4.36460530874E-01  4.40847032135E-01  4.45277618466E-01
  4.49752732930E-01  4.54272823043E-01  4.58838340816E-01  4.63449742806E-01
  4.68107490157E-01  4.72812048646E-01  4.77563888734E-01  4.82363485609E-01
  4.87211319235E-01  4.92107874399E-01  4.97053640760E-01  5.02049112899E-01
  5.07094790368E-01  5.12191177739E-01  5.17338784654E-01  5.22538125879E-01
  5.27789721352E-01  5.33094096237E-01  5.38451780976E-01  5.43863311341E-01
  5.49329228491E-01  5.54850079022E-01  5.60426415023E-01  5.66058794132E-01
  5.71747779593E-01  5.77493940308E-01  5.83297850898E-01  5.89160091759E-01
  5.95081249121E-01  6.01061915103E-01  6.07102687778E-01  6.13204171227E-01
  6.19366975605E-01  6.25591717196E-01  6.31879018480E-01  6.38229508193E-01
  6.44643821388E-01  6.51122599503E-01  6.57666490420E-01  6.64276148535E-01
  6.70952234817E-01  6.77695416883E-01  6.84506369055E-01  6.91385772434E-01
  6.98334314966E-01  7.05352691512E-01  7.12441603915E-01  7.19601761072E-01
  7.26833879005E-01  7.34138680932E-01  7.41516897338E-01  7.48969266052E-01
  7.56496532317E-01  7.64099448865E-01  7.71778775995E-01  7.79535281646E-01
  7.87369741474E-01  7.95282938933E-01  8.03275665349E-01  8.11348720000E-01
  8.19502910200E-01  8.27739051373E-01  8.36057967141E-01  8.44460489403E-01
  8.52947458418E-01  8.61519722889E-01  8.70178140050E-01  8.78923575751E-01
  8.87756904541E-01  8.96679009762E-01  9.05690783631E-01  9.14793127333E-01
  9.23986951110E-01  9.33273174352E-01  9.42652725690E-01  9.52126543085E-01
  9.61695573929E-01  9.71360775131E-01  9.81123113220E-01  9.90983564438E-01
  1.00094311484E+00  1.01100276038E+00  1.02116350705E+00  1.03142637091E+00
  1.04179237828E+00  1.05226256575E+00  1.06283798035E+00  1.07351967963E+00
  1.08430873178E+00  1.09520621571E+00  1.10621322117E+00  1.11733084887E+00
  1.12856021059E+00  1.13990242927E+00  1.15135863914E+00  1.16292998584E+00
  1.17461762651E+00  1.18642272991E+00  1.19834647658E+00  1.21039005890E+00
  1.22255468122E+00  1.23484156004E+00  1.24725192404E+00  1.25978701427E+00
  1.27244808426E+00  1.28523640011E+00  1.29815324067E+00  1.31119989764E+00
  1.32437767570E+00  1.33768789262E+00  1.35113187945E+00  1.36471098059E+00
  1.37842655396E+00  1.39227997115E+00  1.40627261748E+00  1.42040589225E+00
  1.43468120880E+00  1.44909999466E+00  1.46366369173E+00  1.47837375638E+00
  1.49323165965E+00  1.50823888732E+00  1.52339694014E+00  1.53870733393E+00
  1.55417159973E+00  1.56979128398E+00  1.58556794867E+00  1.60150317148E+00
  1.61759854594E+00  1.63385568160E+00  1.65027620419E+00  1.66686175578E+00
  1.68361399493E+00  1.70053459689E+00  1.71762525372E+00  1.73488767451E+00
  1.75232358551E+00  1.76993473033E+00  1.78772287010E+00  1.80568978364E+00
  1.82383726767E+00  1.84216713694E+00  1.86068122447E+00  1.87938138166E+00
  1.89826947856E+00  1.91734740399E+00  1.93661706576E+00  1.95608039085E+00
  1.97573932561E+00  1.99559583595E+00  2.01565190753E+00  2.03590954598E+00
  2.05637077709E+00  2.07703764699E+00  2.09791222238E+00  2.11899659074E+00
  2.14029286053E+00  2.16180316139E+00  2.18352964436E+00  2.20547448212E+00
  2.22763986916E+00  2.25002802205E+00  2.27264117962E+00  2.29548160320E+00
  2.31855157685E+00  2.34185340759E+00  2.36538942562E+00  2.38916198457E+00
  2.41317346170E+00  2.43742625820E+00  2.46192279935E+00  2.48666553483E+00
  2.51165693894E+00  2.53689951083E+00  2.56239577479E+00  2.58814828046E+00
  2.61415960312E+00  2.64043234392E+00  2.66696913015E+00  2.69377261551E+00
  2.72084548039E+00  2.74819043207E+00  2.77581020510E+00  2.80370756145E+00
  2.83188529090E+00  2.86034621123E+00  2.88909316858E+00  2.91812903764E+00
  2.94745672204E+00  2.97707915457E+00  3.00699929750E+00  3.03722014286E+00
  3.06774471277E+00  3.09857605970E+00  3.12971726683E+00  3.16117144828E+00
  3.19294174952E+00  3.22503134759E+00  3.25744345149E+00  3.29018130244E+00
  3.32324817427E+00  3.35664737368E+00  3.39038224063E+00  3.42445614863E+00
  3.45887250510E+00  3.49363475170E+00  3.52874636468E+00  3.56421085524E+00
  3.60003176986E+00  3.63621269066E+00  3.67275723575E+00  3.70966905963E+00
  3.74695185351E+00  3.78460934569E+00  3.82264530196E+00  3.86106352595E+00
  3.89986785951E+00  3.93906218310E+00  3.97865041620E+00  4.01863651765E+00
  4.05902448610E+00  4.09981836039E+00  4.14102221993E+00  4.18264018514E+00
  4.22467641785E+00  4.26713512172E+00  4.31002054267E+00  4.35333696926E+00
  4.39708873317E+00  4.44128020963E+00  4.48591581780E+00  4.53100002129E+00
  4.57653732857E+00  4.62253229339E+00  4.66898951529E+00  4.71591364003E+00
  4.76330936007E+00  4.81118141501E+00  4.85953459210E+00  4.90837372670E+00
  4.95770370277E+00  5.00752945333E+00  5.05785596102E+00  5.10868825852E+00
  5.16003142909E+00  5.21189060712E+00  5.26427097854E+00  5.31717778145E+00
  5.37061630657E+00  5.42459189780E+00  5.47910995274E+00  5.53417592323E+00
  5.58979531593E+00  5.64597369283E+00  5.70271667179E+00  5.76002992718E+00
  5.81791919035E+00  5.87639025030E+00  5.93544895417E+00  5.99510120788E+00
  6.05535297670E+00  6.11621028587E+00  6.17767922117E+00  6.23976592953E+00
  6.30247661969E+00  6.36581756276E+00  6.42979509289E+00  6.49441560789E+00
  6.55968556987E+00  6.62561150587E+00  6.69220000853E+00  6.75945773678E+00
  6.82739141643E+00  6.89600784092E+00  6.96531387193E+00  7.03531644014E+00
  7.10602254585E+00  7.17743925974E+00  7.24957372354E+00  7.32243315075E+00
  7.39602482738E+00  7.47035611265E+00  7.54543443976E+00  7.62126731660E+00
  7.69786232653E+00  7.77522712910E+00  7.85336946087E+00  7.93229713612E+00
  8.01201804770E+00  8.09254016776E+00  8.17387154858E+00  8.25602032337E+00
  8.33899470707E+00  8.42280299719E+00  8.50745357463E+00  8.59295490452E+00
  8.67931553705E+00  8.76654410838E+00  8.85464934142E+00  8.94364004677E+00
  9.03352512358E+00  9.12431356043E+00  9.21601443624E+00  9.30863692118E+00
  9.40219027756E+00  9.49668386081E+00  9.59212712035E+00  9.68852960060E+00
  9.78590094189E+00  9.88425088143E+00  9.98358925429E+00  1.00839259944E+01
  1.01852711355E+01  1.02876348122E+01  1.03910272610E+01  1.04954588211E+01
  1.06009399359E+01  1.07074811535E+01  1.08150931281E+01  1.09237866211E+01
  1.10335725018E+01  1.11444617490E+01  1.12564654517E+01  1.13695948102E+01
  1.14838611378E+01  1.15992758610E+01  1.17158505214E+01  1.18335967767E+01
  1.19525264015E+01  1.20726512889E+01  1.21939834515E+01  1.23165350226E+01
  1.24403182575E+01  1.25653455346E+01  1.26916293567E+01  1.28191823523E+01
  1.29480172768E+01  1.30781470138E+01  1.32095845765E+01  1.33423431086E+01
  1.34764358861E+01  1.36118763185E+01  1.37486779498E+01  1.38868544604E+01
  1.40264196680E+01  1.41673875292E+01  1.43097721411E+01  1.44535877420E+01
  1.45988487138E+01  1.47455695826E+01  1.48937650206E+01  1.50434498476E+01
  1.51946390321E+01  1.53473476932E+01  1.55015911018E+01  1.56573846824E+01
  1.58147440146E+01  1.59736848343E+01  1.61342230359E+01  1.62963746731E+01
  1.64601559615E+01  1.66255832791E+01  1.67926731689E+01  1.69614423401E+01
  1.71319076696E+01  1.73040862041E+01  1.74779951617E+01  1.76536519334E+01
  1.78310740850E+01  1.80102793588E+01  1.81912856756E+01  1.83741111361E+01
  1.85587740231E+01  1.87452928029E+01  1.89336861276E+01  1.91239728367E+01
  1.93161719590E+01  1.95103027146E+01  1.97063845168E+01  1.99044369738E+01
  2.01044798911E+01  2.03065332731E+01  2.05106173254E+01  2.07167524566E+01
  2.09249592802E+01  2.11352586172E+01  2.13476714976E+01  2.15622191631E+01
  2.17789230684E+01  2.19978048841E+01  2.22188864987E+01  2.24421900204E+01
  2.26677377798E+01  2.28955523320E+01  2.31256564584E+01  2.33580731697E+01
  2.35928257078E+01  2.38299375482E+01  2.40694324021E+01  2.43113342194E+01
  2.45556671904E+01  2.48024557485E+01  2.50517245729E+01  2.53034985906E+01
  2.55578029792E+01  2.58146631694E+01  2.60741048475E+01  2.63361539578E+01
  2.66008367054E+01  2.68681795589E+01  2.71382092527E+01  2.74109527901E+01
  2.76864374456E+01  2.79646907678E+01  2.82457405825E+01  2.85296149948E+01
  2.88163423923E+01  2.91059514481E+01  2.93984711233E+01  2.96939306701E+01
  2.99923596348E+01  3.02937878603E+01  3.05982454899E+01  3.09057629696E+01
  3.12163710513E+01  3.15301007961E+01  3.18469835773E+01  3.21670510834E+01
  3.24903353214E+01  3.28168686200E+01  3.31466836328E+01  3.34798133416E+01
  3.38162910596E+01  3.41561504349E+01  3.44994254538E+01  3.48461504439E+01
  3.51963600781E+01  3.55500893776E+01  3.59073737157E+01  3.62682488211E+01
  3.66327507816E+01  3.70009160477E+01  3.73727814363E+01  3.77483841341E+01
  3.81277617018E+01  3.85109520775E+01  3.88979935804E+01  3.92889249151E+01
  3.96837851751E+01  4.00826138466E+01  4.04854508130E+01  4.08923363581E+01
  4.13033111710E+01  4.17184163494E+01  4.21376934042E+01  4.25611842634E+01
  4.29889312766E+01  4.34209772187E+01  4.38573652947E+01  4.42981391438E+01
  4.47433428437E+01  4.51930209152E+01  4.56472183264E+01  4.61059804975E+01
  4.65693533051E+01  4.70373830868E+01  4.75101166460E+01  4.79876012565E+01
  4.84698846671E+01  4.89570151066E+01  4.94490412883E+01  4.99460124154E+01
  5.04479781854E+01  5.09549887952E+01  5.14670949464E+01  5.19843478499E+01
  5.25067992316E+01  5.30345013369E+01  5.35675069366E+01  5.41058693316E+01
  5.46496423586E+01  5.51988803954E+01  5.57536383662E+01  5.63139717473E+01
  5.68799365726E+01  5.74515894389E+01  5.80289875120E+01  5.86121885322E+01
  5.92012508201E+01  5.97962332824E+01  6.03971954179E+01
  </PP_R>
  <PP_RAB>
  2.39616162788E-07  2.42024345260E-07  2.44456730368E-07  2.46913561353E-07
  2.49395083900E-07  2.51901546163E-07  2.54433198791E-07  2.56990294950E-07
  2.59573090354E-07  2.62181843282E-07  2.64816814614E-07  2.67478267847E-07