<PP_INFO>
Generated using ld1 code (maybe, or maybe not)                                  
Author: unknown    Generation date: as well                                     
Info: automatically converted from PWSCF format                                 
    0        The Pseudo was generated with a Non-Relativistic Calculation
nl pn  l   occ               Rcut            Rcut US             E pseu
*S  0  0  2.00      0.00000000000      0.00000000000      0.00000000000
*P  0  1  1.00      0.00000000000      0.00000000000      0.00000000000
</PP_INFO>


<PP_HEADER>
   0                   Version Number
  Al                   Element
   NC                  Norm - Conserving pseudopotential
    F                  Nonlinear Core Correction
SLA  PW   PBE  PBE     PBE  Exchange-Correlation functional
    3.00000000000      Z valence
    0.00000000000      Total energy
  0.0000000  0.0000000 Suggested cutoff for wfc and rho
    1                  Max angular momentum component
 1142                  Number of points in mesh
    2    1             Number of Wavefunctions, Number of Projectors
 Wavefunctions         nl  l   occ
                       *S  0  2.00
                       *P  1  1.00
</PP_HEADER>


<PP_MESH>
  <PP_R>
  4.25290427131E-05  4.30855295959E-05  4.36492980358E-05  4.42204433110E-05
  4.47990619463E-05  4.53852517297E-05  4.59791117287E-05  4.65807423070E-05
  4.71902451416E-05  4.78077232399E-05  4.84332809573E-05  4.90670240144E-05
  4.97090595154E-05  5.03594959657E-05  5.10184432907E-05  5.16860128541E-05
  5.23623174767E-05  5.30474714555E-05  5.37415905833E-05  5.44447921678E-05
  5.51571950517E-05  5.58789196329E-05  5.66100878845E-05  5.73508233757E-05
  5.81012512925E-05  5.88614984591E-05  5.96316933591E-05  6.04119661571E-05
  6.12024487212E-05  6.20032746448E-05  6.28145792695E-05  6.36364997075E-05
  6.44691748654E-05  6.53127454673E-05  6.61673540786E-05  6.70331451303E-05
  6.79102649430E-05  6.87988617522E-05  6.96990857327E-05  7.06110890246E-05
  7.15350257586E-05  7.24710520823E-05  7.34193261862E-05  7.43800083310E-05
  7.53532608742E-05  7.63392482979E-05  7.73381372362E-05  7.83500965038E-05
  7.93752971242E-05  8.04139123587E-05  8.14661177358E-05  8.25320910807E-05
  8.36120125454E-05  8.47060646393E-05  8.58144322596E-05  8.69373027233E-05
  8.80748657981E-05  8.92273137348E-05  9.03948412999E-05  9.15776458083E-05
  9.27759271568E-05  9.39898878578E-05  9.52197330736E-05  9.64656706509E-05
  9.77279111562E-05  9.90066679110E-05  1.00302157028E-04  1.01614597449E-04
  1.02944210978E-04  1.04291222325E-04  1.05655859135E-04  1.07038352038E-04
  1.08438934677E-04  1.09857843754E-04  1.11295319068E-04  1.12751603555E-04
  1.14226943333E-04  1.15721587735E-04  1.17235789361E-04  1.18769804115E-04
  1.20323891248E-04  1.21898313405E-04  1.23493336667E-04  1.25109230598E-04
  1.26746268285E-04  1.28404726394E-04  1.30084885208E-04  1.31787028676E-04
  1.33511444466E-04  1.35258424008E-04  1.37028262545E-04  1.38821259185E-04
  1.40637716948E-04  1.42477942820E-04  1.44342247804E-04  1.46230946971E-04
  1.48144359516E-04  1.50082808810E-04  1.52046622456E-04  1.54036132344E-04
  1.56051674704E-04  1.58093590169E-04  1.60162223827E-04  1.62257925282E-04
  1.64381048712E-04  1.66531952931E-04  1.68711001446E-04  1.70918562522E-04
  1.73155009242E-04  1.75420719571E-04  1.77716076418E-04  1.80041467706E-04
  1.82397286430E-04  1.84783930730E-04  1.87201803954E-04  1.89651314728E-04
  1.92132877026E-04  1.94646910237E-04  1.97193839240E-04  1.99774094470E-04
  2.02388111998E-04  2.05036333599E-04  2.07719206828E-04  2.10437185098E-04
  2.13190727752E-04  2.15980300147E-04  2.18806373727E-04  2.21669426105E-04
  2.24569941143E-04  2.27508409036E-04  2.30485326391E-04  2.33501196316E-04
  2.36556528498E-04  2.39651839296E-04  2.42787651826E-04  2.45964496047E-04
  2.49182908853E-04  2.52443434163E-04  2.55746623015E-04  2.59093033655E-04
  2.62483231634E-04  2.65917789904E-04  2.69397288914E-04  2.72922316706E-04
  2.76493469020E-04  2.80111349388E-04  2.83776569241E-04  2.87489748009E-04
  2.91251513229E-04  2.95062500648E-04  2.98923354332E-04  3.02834726774E-04
  3.06797279006E-04  3.10811680708E-04  3.14878610324E-04  3.18998755174E-04
  3.23172811574E-04  3.27401484948E-04  3.31685489952E-04  3.36025550593E-04
  3.40422400352E-04  3.44876782307E-04  3.49389449259E-04  3.53961163859E-04
  3.58592698739E-04  3.63284836638E-04  3.68038370539E-04  3.72854103801E-04
  3.77732850294E-04  3.82675434537E-04  3.87682691840E-04  3.92755468440E-04
  3.97894621650E-04  4.03101019997E-04  4.08375543377E-04  4.13719083195E-04
  4.19132542522E-04  4.24616836248E-04  4.30172891229E-04  4.35801646452E-04
  4.41504053191E-04  4.47281075166E-04  4.53133688707E-04  4.59062882920E-04
  4.65069659853E-04  4.71155034665E-04  4.77320035800E-04  4.83565705156E-04
  4.89893098268E-04  4.96303284479E-04  5.02797347127E-04  5.09376383723E-04
  5.16041506140E-04  5.22793840800E-04  5.29634528864E-04  5.36564726423E-04
  5.43585604698E-04  5.50698350234E-04  5.57904165102E-04  5.65204267102E-04
  5.72599889968E-04  5.80092283579E-04  5.87682714166E-04  5.95372464531E-04
  6.03162834259E-04  6.11055139941E-04  6.19050715397E-04  6.27150911897E-04
  6.35357098394E-04  6.43670661752E-04  6.52093006985E-04  6.60625557487E-04
  6.69269755282E-04  6.78027061257E-04  6.86898955420E-04  6.95886937141E-04
  7.04992525411E-04  7.14217259096E-04  7.23562697197E-04  7.33030419117E-04
  7.42622024922E-04  7.52339135616E-04  7.62183393415E-04  7.72156462022E-04
  7.82260026909E-04  7.92495795602E-04  8.02865497970E-04  8.13370886519E-04
  8.24013736683E-04  8.34795847131E-04  8.45719040063E-04  8.56785161526E-04
  8.67996081720E-04  8.79353695318E-04  8.90859921784E-04  9.02516705696E-04
  9.14326017081E-04  9.26289851738E-04  9.38410231584E-04  9.50689204994E-04
  9.63128847141E-04  9.75731260357E-04  9.88498574477E-04  1.00143294721E-03
  1.01453656449E-03  1.02781164087E-03  1.04126041986E-03  1.05488517434E-03
  1.06868820693E-03  1.08267185037E-03  1.09683846792E-03  1.11119045379E-03
  1.12573023349E-03  1.14046026428E-03  1.15538303557E-03  1.17050106934E-03
  1.18581692057E-03  1.20133317769E-03  1.21705246298E-03  1.23297743302E-03
  1.24911077919E-03  1.26545522806E-03  1.28201354187E-03  1.29878851901E-03
  1.31578299451E-03  1.33299984047E-03  1.35044196658E-03  1.36811232058E-03
  1.38601388883E-03  1.40414969673E-03  1.42252280926E-03  1.44113633154E-03
  1.45999340928E-03  1.47909722939E-03  1.49845102045E-03  1.51805805330E-03
  1.53792164157E-03  1.55804514226E-03  1.57843195629E-03  1.59908552907E-03
  1.62000935111E-03  1.64120695860E-03  1.66268193396E-03  1.68443790653E-03
  1.70647855311E-03  1.72880759863E-03  1.75142881675E-03  1.77434603050E-03
  1.79756311296E-03  1.82108398787E-03  1.84491263030E-03  1.86905306736E-03
  1.89350937883E-03  1.91828569790E-03  1.94338621182E-03  1.96881516263E-03
  1.99457684788E-03  2.02067562138E-03  2.04711589386E-03  2.07390213380E-03
  2.10103886814E-03  2.12853068305E-03  2.15638222471E-03  2.18459820009E-03
  2.21318337778E-03  2.24214258872E-03  2.27148072709E-03  2.30120275112E-03
  2.33131368388E-03  2.36181861421E-03  2.39272269751E-03  2.42403115663E-03
  2.45574928279E-03  2.48788243643E-03  2.52043604811E-03  2.55341561949E-03
  2.58682672419E-03  2.62067500876E-03  2.65496619364E-03  2.68970607413E-03
  2.72490052135E-03  2.76055548324E-03  2.79667698557E-03  2.83327113298E-03
  2.87034410995E-03  2.90790218190E-03  2.94595169625E-03  2.98449908344E-03
  3.02355085808E-03  3.06311362002E-03  3.10319405544E-03  3.14379893805E-03
  3.18493513016E-03  3.22660958389E-03  3.26882934232E-03  3.31160154068E-03
  3.35493340759E-03  3.39883226623E-03  3.44330553561E-03  3.48836073183E-03
  3.53400546930E-03  3.58024746212E-03  3.62709452528E-03  3.67455457604E-03
  3.72263563527E-03  3.77134582879E-03  3.82069338873E-03  3.87068665494E-03
  3.92133407641E-03  3.97264421268E-03  4.02462573527E-03  4.07728742919E-03
  4.13063819439E-03  4.18468704727E-03  4.23944312223E-03  4.29491567316E-03
  4.35111407507E-03  4.40804782560E-03  4.46572654672E-03  4.52415998625E-03
  4.58335801958E-03  4.64333065133E-03  4.70408801701E-03  4.76564038476E-03
  4.82799815708E-03  4.89117187258E-03  4.95517220777E-03  5.02000997885E-03
  5.08569614357E-03  5.15224180304E-03  5.21965820364E-03  5.28795673890E-03
  5.35714895143E-03  5.42724653489E-03  5.49826133592E-03  5.57020535621E-03
  5.64309075447E-03  5.71692984849E-03  5.79173511726E-03  5.86751920305E-03
  5.94429491356E-03  6.02207522405E-03  6.10087327959E-03  6.18070239723E-03
  6.26157606829E-03  6.34350796060E-03  6.42651192086E-03  6.51060197693E-03
  6.59579234024E-03  6.68209740814E-03  6.76953176641E-03  6.85811019166E-03
  6.94784765386E-03  7.03875931885E-03  7.13086055091E-03  7.22416691538E-03
  7.31869418125E-03  7.41445832386E-03  7.51147552757E-03  7.60976218853E-03
  7.70933491741E-03  7.81021054223E-03  7.91240611123E-03  8.01593889569E-03
  8.12082639291E-03  8.22708632911E-03  8.33473666248E-03  8.44379558619E-03
  8.55428153145E-03  8.66621317065E-03  8.77960942050E-03  8.89448944524E-03
  9.01087265986E-03  9.12877873341E-03  9.24822759229E-03  9.36923942365E-03
  9.49183467877E-03  9.61603407655E-03  9.74185860697E-03  9.86932953468E-03
  9.99846840257E-03  1.01292970354E-02  1.02618375436E-02  1.03961123267E-02
  1.05321440776E-02  1.06699557858E-02  1.08095707420E-02  1.09510125414E-02
  1.10943050879E-02  1.12394725985E-02  1.13865396066E-02  1.15355309671E-02
  1.16864718597E-02  1.18393877939E-02  1.19943046128E-02  1.21512484977E-02
  1.23102459726E-02  1.24713239083E-02  1.26345095274E-02  1.27998304087E-02
  1.29673144919E-02  1.31369900820E-02  1.33088858547E-02  1.34830308609E-02
  1.36594545313E-02  1.38381866820E-02  1.40192575193E-02  1.42026976444E-02
  1.43885380592E-02  1.45768101712E-02  1.47675457988E-02  1.49607771768E-02
  1.51565369618E-02  1.53548582376E-02  1.55557745209E-02  1.57593197672E-02
  1.59655283761E-02  1.61744351972E-02  1.63860755364E-02  1.66004851613E-02
  1.68177003078E-02  1.70377576856E-02  1.72606944850E-02  1.74865483829E-02
  1.77153575491E-02  1.79471606528E-02  1.81819968694E-02  1.84199058868E-02
  1.86609279121E-02  1.89051036787E-02  1.91524744527E-02  1.94030820405E-02
  1.96569687954E-02  1.99141776248E-02  2.01747519976E-02  2.04387359515E-02
  2.07061741004E-02  2.09771116421E-02  2.12515943655E-02  2.15296686590E-02
  2.18113815177E-02  2.20967805518E-02  2.23859139944E-02  2.26788307097E-02
  2.29755802014E-02  2.32762126209E-02  2.35807787756E-02  2.38893301382E-02
  2.42019188543E-02  2.45185977524E-02  2.48394203518E-02  2.51644408724E-02
  2.54937142434E-02  2.58272961128E-02  2.61652428567E-02  2.65076115889E-02
  2.68544601706E-02  2.72058472199E-02  2.75618321222E-02  2.79224750397E-02
  2.82878369220E-02  2.86579795160E-02  2.90329653768E-02  2.94128578778E-02
  2.97977212218E-02  3.01876204516E-02  3.05826214611E-02  3.09827910065E-02
  3.13881967172E-02  3.17989071079E-02  3.22149915896E-02  3.26365204816E-02
  3.30635650232E-02  3.34961973859E-02  3.39344906858E-02  3.43785189953E-02
  3.48283573564E-02  3.52840817928E-02  3.57457693230E-02  3.62134979732E-02
  3.66873467908E-02  3.71673958574E-02  3.76537263023E-02  3.81464203165E-02
  3.86455611666E-02  3.91512332086E-02  3.96635219021E-02  4.01825138252E-02
  4.07082966888E-02  4.12409593514E-02  4.17805918343E-02  4.23272853366E-02
  4.28811322510E-02  4.34422261787E-02  4.40106619461E-02  4.45865356201E-02
  4.51699445247E-02  4.57609872574E-02  4.63597637060E-02  4.69663750649E-02
  4.75809238530E-02  4.82035139304E-02  4.88342505165E-02  4.94732402071E-02
  5.01205909931E-02  5.07764122782E-02  5.14408148979E-02  5.21139111377E-02
  5.27958147526E-02  5.34866409858E-02  5.41865065886E-02  5.48955298400E-02
  5.56138305666E-02  5.63415301629E-02  5.70787516119E-02  5.78256195059E-02
  5.85822600671E-02  5.93488011697E-02  6.01253723610E-02  6.09121048833E-02
  6.17091316963E-02  6.25165874994E-02  6.33346087546E-02  6.41633337095E-02
  6.50029024204E-02  6.58534567766E-02  6.67151405237E-02  6.75880992883E-02
  6.84724806026E-02  6.93684339291E-02  7.02761106860E-02  7.11956642729E-02
  7.21272500965E-02  7.30710255971E-02  7.40271502749E-02  7.49957857172E-02
  7.59770956259E-02  7.69712458445E-02  7.79784043869E-02  7.89987414653E-02
  8.00324295189E-02  8.10796432437E-02  8.21405596211E-02  8.32153579486E-02
  8.43042198696E-02  8.54073294045E-02  8.65248729813E-02  8.76570394676E-02
  8.88040202022E-02  8.99660090276E-02  9.11432023226E-02  9.23357990357E-02
  9.35440007187E-02  9.47680115604E-02  9.60080384216E-02  9.72642908698E-02
  9.85369812147E-02  9.98263245439E-02  1.01132538760E-01  1.02455844615E-01
  1.03796465752E-01  1.05154628739E-01  1.06530563108E-01  1.07924501396E-01
  1.09336679182E-01  1.10767335126E-01  1.12216711014E-01  1.13685051794E-01
  1.15172605617E-01  1.16679623885E-01  1.18206361287E-01  1.19753075846E-01
  1.21320028959E-01  1.22907485446E-01  1.24515713591E-01  1.26144985187E-01
  1.27795575587E-01  1.29467763742E-01  1.31161832258E-01  1.32878067436E-01
  1.34616759323E-01  1.36378201764E-01  1.38162692444E-01  1.39970532949E-01
  1.41802028807E-01  1.43657489545E-01  1.45537228741E-01  1.47441564075E-01
  1.49370817385E-01  1.51325314717E-01  1.53305386389E-01  1.55311367035E-01
  1.57343595672E-01  1.59402415752E-01  1.61488175218E-01  1.63601226571E-01
  1.65741926921E-01  1.67910638051E-01  1.70107726478E-01  1.72333563516E-01
  1.74588525336E-01  1.76872993033E-01  1.79187352686E-01  1.81531995428E-01
  1.83907317510E-01  1.86313720366E-01  1.88751610685E-01  1.91221400474E-01
  1.93723507136E-01  1.96258353531E-01  1.98826368055E-01  2.01427984709E-01
  2.04063643171E-01  2.06733788875E-01  2.09438873082E-01  2.12179352956E-01
  2.14955691646E-01  2.17768358359E-01  2.20617828443E-01  2.23504583466E-01
  2.26429111295E-01  2.29391906183E-01  2.32393468848E-01  2.35434306563E-01
  2.38514933237E-01  2.41635869502E-01  2.44797642803E-01  2.48000787489E-01
  2.51245844899E-01  2.54533363454E-01  2.57863898754E-01  2.61238013666E-01
  2.64656278424E-01  2.68119270723E-01  2.71627575817E-01  2.75181786618E-01
  2.78782503795E-01  2.82430335880E-01  2.86125899363E-01  2.89869818805E-01
  2.93662726935E-01  2.97505264766E-01  3.01398081694E-01  3.05341835615E-01
  3.09337193034E-01  3.13384829174E-01  3.17485428097E-01  3.21639682812E-01
  3.25848295399E-01  3.30111977124E-01  3.34431448558E-01  3.38807439704E-01
  3.43240690113E-01  3.47731949015E-01  3.52281975445E-01  3.56891538367E-01
  3.61561416808E-01  3.66292399990E-01  3.71085287458E-01  3.75940889224E-01
  3.80860025895E-01  3.85843528816E-01  3.90892240212E-01  3.96007013327E-01
  4.01188712570E-01  4.06438213661E-01  4.11756403776E-01  4.17144181704E-01
  4.22602457992E-01  4.28132155101E-01  4.33734207563E-01  4.39409562138E-01
  4.45159177975E-01  4.50984026773E-01  4.56885092945E-01  4.62863373785E-01
  4.68919879636E-01  4.75055634064E-01  4.81271674024E-01  4.87569050043E-01
  4.93948826391E-01  5.00412081267E-01  5.06959906976E-01  5.13593410115E-01
  5.20313711763E-01  5.27121947667E-01  5.34019268435E-01  5.41006839730E-01
  5.48085842469E-01  5.55257473019E-01  5.62522943404E-01  5.69883481505E-01
  5.77340331271E-01  5.84894752928E-01  5.92548023189E-01  6.00301435477E-01
  6.08156300136E-01  6.16113944657E-01  6.24175713902E-01  6.32342970327E-01
  6.40617094220E-01  6.48999483926E-01  6.57491556090E-01  6.66094745892E-01
  6.74810507291E-01  6.83640313271E-01  6.92585656092E-01  7.01648047538E-01
  7.10829019173E-01  7.20130122604E-01  7.29552929740E-01  7.39099033058E-01
  7.48770045871E-01  7.58567602605E-01  7.68493359068E-01  7.78548992738E-01
  7.88736203042E-01  7.99056711640E-01  8.09512262725E-01  8.20104623309E-01
  8.30835583526E-01  8.41706956934E-01  8.52720580822E-01  8.63878316517E-01
  8.75182049703E-01  8.86633690739E-01  8.98235174979E-01  9.09988463102E-01
  9.21895541441E-01  9.33958422320E-01  9.46179144396E-01  9.58559772999E-01
  9.71102400485E-01  9.83809146588E-01  9.96682158778E-01  1.00972361263E+00
  1.02293571217E+00  1.03632069028E+00  1.04988080905E+00  1.06361836018E+00
  1.07753566535E+00  1.09163507660E+00  1.10591897679E+00  1.12038977991E+00
  1.13504993157E+00  1.14990190937E+00  1.16494822333E+00  1.18019141632E+00
  1.19563406446E+00  1.21127877760E+00  1.22712819974E+00  1.24318500947E+00
  1.25945192042E+00  1.27593168175E+00  1.29262707856E+00  1.30954093243E+00
  1.32667610183E+00  1.34403548266E+00  1.36162200867E+00  1.37943865205E+00
  1.39748842384E+00  1.41577437451E+00  1.43429959441E+00  1.45306721436E+00
  1.47208040612E+00  1.49134238298E+00  1.51085640025E+00  1.53062575584E+00
  1.55065379084E+00  1.57094389001E+00  1.59149948244E+00  1.61232404207E+00
  1.63342108830E+00  1.65479418659E+00  1.67644694903E+00  1.69838303499E+00
  1.72060615173E+00  1.74312005500E+00  1.76592854972E+00  1.78903549056E+00
  1.81244478265E+00  1.83616038223E+00  1.86018629728E+00  1.88452658825E+00
  1.90918536869E+00  1.93416680600E+00  1.95947512211E+00  1.98511459418E+00
  2.01108955534E+00  2.03740439542E+00  2.06406356169E+00  2.09107155962E+00
  2.11843295362E+00  2.14615236782E+00  2.17423448689E+00  2.20268405676E+00
  2.23150588548E+00  2.26070484400E+00  2.29028586703E+00  2.32025395381E+00
  2.35061416904E+00  2.38137164366E+00  2.41253157575E+00  2.44409923142E+00
  2.47607994568E+00  2.50847912334E+00  2.54130223994E+00  2.57455484267E+00
  2.60824255130E+00  2.64237105912E+00  2.67694613395E+00  2.71197361904E+00
  2.74745943413E+00  2.78340957640E+00  2.81983012152E+00  2.85672722463E+00
  2.89410712145E+00  2.93197612926E+00  2.97034064801E+00  3.00920716141E+00
  3.04858223797E+00  3.08847253219E+00  3.12888478562E+00  3.16982582802E+00
  3.21130257854E+00  3.25332204683E+00  3.29589133429E+00  3.33901763523E+00
  3.38270823810E+00  3.42697052671E+00  3.47181198150E+00  3.51724018078E+00
  3.56326280202E+00  3.60988762315E+00  3.65712252388E+00  3.70497548702E+00
  3.75345459984E+00  3.80256805542E+00  3.85232415406E+00  3.90273130464E+00
  3.95379802610E+00  4.00553294884E+00  4.05794481618E+00  4.11104248585E+00
  4.16483493149E+00  4.21933124415E+00  4.27454063382E+00  4.33047243104E+00
  4.38713608841E+00  4.44454118221E+00  4.50269741406E+00  4.56161461248E+00
  4.62130273463E+00  4.68177186794E+00  4.74303223184E+00  4.80509417948E+00
  4.86796819947E+00  4.93166491767E+00  4.99619509898E+00  5.06156964916E+00
  5.12779961665E+00  5.19489619448E+00  5.26287072213E+00  5.33173468746E+00
  5.40149972865E+00  5.47217763614E+00  5.54378035468E+00  5.61631998529E+00
  5.68980878735E+00  5.76425918064E+00  5.83968374744E+00  5.91609523470E+00
  5.99350655613E+00  6.07193079444E+00  6.15138120350E+00  6.23187121063E+00
  6.31341441883E+00  6.39602460908E+00  6.47971574272E+00  6.56450196375E+00
  6.65039760123E+00  6.73741717173E+00  6.82557538177E+00  6.91488713029E+00
  7.00536751120E+00  7.09703181589E+00  7.18989553585E+00  7.28397436527E+00
  7.37928420369E+00  7.47584115871E+00  7.57366154867E+00  7.67276190546E+00
  7.77315897728E+00  7.87486973146E+00  7.97791135738E+00  8.08230126929E+00
  8.18805710937E+00  8.29519675058E+00  8.40373829978E+00  8.51370010076E+00
  8.62510073732E+00  8.73795903643E+00  8.85229407142E+00  8.96812516517E+00
  9.08547189343E+00  9.20435408805E+00  9.32479184043E+00  9.44680550482E+00
  9.57041570182E+00  9.69564332186E+00  9.82250952869E+00  9.95103576302E+00
  1.00812437461E+01  1.02131554833E+01  1.03467932681E+01  1.04821796856E+01
  1.06193376165E+01  1.07582902406E+01  1.08990610415E+01  1.10416738095E+01
  1.11861526468E+01  1.13325219704E+01  1.14808065172E+01  1.16310313477E+01
  1.17832218501E+01  1.19374037451E+01  1.20936030897E+01  1.22518462821E+01
  1.24121600656E+01  1.25745715337E+01  1.27391081343E+01  1.29057976745E+01
  1.30746683253E+01  1.32457486261E+01  1.34190674900E+01  1.35946542082E+01
  1.37725384553E+01  1.39527502942E+01  1.41353201811E+01  1.43202789707E+01
  1.45076579216E+01  1.46974887012E+01  1.48898033914E+01  1.50846344938E+01
  1.52820149353E+01  1.54819780737E+01  1.56845577033E+01  1.58897880604E+01
  1.60977038296E+01  1.63083401490E+01  1.65217326167E+01  1.67379172965E+01
  1.69569307242E+01  1.71788099136E+01  1.74035923627E+01  1.76313160604E+01
  1.78620194924E+01  1.80957416482E+01  1.83325220275E+01  1.85724006466E+01
  1.88154180456E+01  1.90616152950E+01  1.93110340028E+01  1.95637163213E+01
  1.98197049545E+01  2.00790431649E+01  2.03417747814E+01  2.06079442063E+01
  2.08775964228E+01  2.11507770028E+01  2.14275321144E+01  2.17079085300E+01
  2.19919536338E+01  2.22797154301E+01  2.25712425513E+01  2.28665842662E+01
  2.31657904883E+01  2.34689117841E+01  2.37759993819E+01  2.40871051802E+01
  2.44022817565E+01  2.47215823766E+01  2.50450610029E+01  2.53727723041E+01
  2.57047716643E+01  2.60411151920E+01  2.63818597302E+01  2.67270628655E+01
  2.70767829380E+01  2.74310790513E+01  2.77900110822E+01  2.81536396911E+01
  2.85220263322E+01  2.88952332636E+01  2.92733235582E+01  2.96563611141E+01
  3.00444106657E+01  3.04375377941E+01  3.08358089389E+01  3.12392914088E+01
  3.16480533933E+01  3.20621639742E+01  3.24816931370E+01  3.29067117834E+01
  3.33372917423E+01  3.37735057829E+01  3.42154276263E+01  3.46631319585E+01
  3.51166944424E+01  3.55761917313E+01  3.60417014813E+01  3.65133023646E+01
  3.69910740829E+01  3.74750973808E+01  3.79654540593E+01  3.84622269899E+01
  3.89655001285E+01  3.94753585292E+01  3.99918883596E+01  4.05151769142E+01
  4.10453126302E+01  4.15823851017E+01  4.21264850953E+01  4.26777045651E+01
  4.32361366685E+01  4.38018757820E+01  4.43750175167E+01  4.49556587350E+01
  4.55438975666E+01  4.61398334253E+01  4.67435670257E+01  4.73552004002E+01
  4.79748369162E+01  4.86025812939E+01  4.92385396234E+01  4.98828193834E+01
  5.05355294586E+01  5.11967801585E+01  5.18666832361E+01  5.25453519067E+01
  5.32329008667E+01  5.39294463137E+01  5.46351059655E+01  5.53499990803E+01
  5.60742464766E+01  5.68079705541E+01  5.75512953138E+01  5.83043463793E+01
  5.90672510182E+01  5.98401381631E+01  6.06231384337E+01  6.14163841591E+01
  6.22200093995E+01  6.30341499696E+01  6.38589434611E+01  6.46945292660E+01
  6.55410486004E+01  6.63986445280E+01  6.72674619845E+01  6.81476478022E+01
  6.90393507346E+01  6.99427214815E+01  7.08579127149E+01  7.17850791042E+01
  7.27243773426E+01  7.36759661740E+01  7.46400064190E+01  7.56166610027E+01
  7.66060949821E+01  7.76084755739E+01  7.86239721828E+01  7.96527564301E+01
  8.06950021829E+01  8.17508855830E+01  8.28205850774E+01  8.39042814478E+01
  8.50021578415E+01  8.61143998021E+01  8.72411953013E+01  8.83827347701E+01
  8.95392111315E+01  9.07108198327E+01  9.18977588783E+01  9.31002288639E+01
  9.43184330097E+01  9.55525771952E+01  9.68028699937E+01  9.80695227076E+01
  9.93527494043E+01  1.00652766952E+02  1.01969795057E+02  1.03304056300E+02
  1.04655776175E+02  1.06025183124E+02  1.07412508582E+02  1.08817987010E+02
  1.10241855936E+02  1.11684355999E+02  1.13145730983E+02  1.14626227865E+02
  1.16126096853E+02  1.17645591427E+02
  </PP_R>
  <PP_RAB>
  5.52877555270E-07  5.60111884747E-07  5.67440874466E-07  5.74865763043E-07
  5.82387805302E-07  5.90008272486E-07  5.97728452473E-07  6.05549649991E-07
  6.13473186840E-07  6.21500402119E-07  6.29632652445E-07  6.37871312187E-07
  6.46217773700E-07  6.54673447554E-07  6.63239762780E-07  6.71918167103E-07
  6.80710127197E-07  6.89617128921E-07  6.98640677582E-07  7.07782298181E-07
  7.17043535672E-07  7.26425955228E-07  7.35931142498E-07  7.45560703884E-07
  7.55316266803E-07  7.65199479969E-07  7.75212013668E-07  7.85355560043E-07
  7.95631833376E-07  8.06042570383E-07  8.16589530503E-07  8.27274496197E-07
  8.38099273250E-07  8.49065691075E-07  8.60175603022E-07  8.71430886694E-07
  8.82833444259E-07  8.94385202778E-07  9.06088114525E-07  9.17944157320E-07
  9.29955334862E-07  9.42123677070E-07  9.54451240421E-07  9.66940108303E-07
  9.79592391365E-07  9.92410227873E-07  1.00539578407E-06  1.01855125455E-06
  1.03187886261E-06  1.04538086066E-06  1.05905953057E-06  1.07291718405E-06
  1.08695616309E-06  1.10117884031E-06  1.11558761938E-06  1.13018493540E-06
  1.14497325537E-06  1.15995507855E-06  1.17513293690E-06  1.19050939551E-06
  1.20608705304E-06  1.22186854215E-06  1.23785652996E-06  1.25405371846E-06
  1.27046284503E-06  1.28708668284E-06  1.30392804137E-06  1.32098976684E-06
  1.33827474272E-06  1.35578589022E-06  1.37352616876E-06  1.39149857649E-06
  1.40970615080E-06  1.42815196880E-06  1.44683914788E-06  1.46577084622E-06
  1.48495026332E-06  1.50438064055E-06  1.52406526170E-06  1.54400745349E-06
  1.56421058622E-06  1.58467807427E-06  1.60541337668E-06  1.62641999777E-06
  1.64770148771E-06  1.66926144313E-06  1.69110350770E-06  1.71323137279E-06
  1.73564877806E-06  1.75835951210E-06  1.78136741309E-06  1.80467636941E-06
  1.82829032033E-06  1.85221325667E-06  1.87644922145E-06  1.90100231062E-06
  1.92587667371E-06  1.95107651453E-06  1.97660609193E-06  2.00246972047E-06
  2.02867177115E-06  2.05521667220E-06  2.08210890975E-06  2.10935302866E-06
  2.13695363326E-06  2.16491538810E-06  2.19324301880E-06  2.22194131279E-06
  2.25101512015E-06  2.28046935442E-06  2.31030899344E-06  2.34053908018E-06
  2.37116472359E-06  2.40219109949E-06  2.43362345140E-06  2.46546709147E-06
  2.49772740134E-06  2.53040983308E-06  2.56351991012E-06  2.59706322811E-06
  2.63104545598E-06  2.66547233679E-06  2.70034968877E-06  2.73568340627E-06
  2.77147946078E-06  2.80774390191E-06  2.84448285845E-06  2.88170253936E-06
  2.91940923486E-06  2.95760931747E-06  2.99630924309E-06  3.03551555210E-06
  3.07523487047E-06  3.11547391085E-06  3.15623947374E-06  3.19753844861E-06
  3.23937781508E-06  3.28176464412E-06  3.32470609920E-06  3.36820943752E-06
  3.41228201125E-06  3.45693126876E-06  3.50216475588E-06  3.54799011718E-06
  3.59441509726E-06  3.64144754204E-06  3.68909540013E-06  3.73736672412E-06
  3.78626967198E-06  3.83581250842E-06  3.88600360631E-06  3.93685144806E-06
  3.98836462708E-06  4.04055184920E-06  4.09342193421E-06  4.14698381727E-06
  4.20124655046E-06  4.25621930432E-06  4.31191136937E-06  4.36833215771E-06
  4.42549120457E-06  4.48339816999E-06  4.54206284036E-06  4.60149513017E-06
  4.66170508360E-06  4.72270287629E-06  4.78449881701E-06  4.84710334941E-06
  4.91052705382E-06  4.97478064898E-06  5.03987499392E-06  5.10582108973E-06
  5.17263008145E-06  5.24031325997E-06  5.30888206390E-06  5.37834808153E-06
  5.44872305279E-06  5.52001887122E-06  5.59224758597E-06  5.66542140388E-06
  5.73955269148E-06  5.81465397716E-06  5.89073795319E-06  5.96781747796E-06
  6.04590557809E-06  6.12501545065E-06  6.20516046539E-06  6.28635416703E-06
  6.36861027748E-06  6.45194269823E-06  6.53636551265E-06  6.62189298840E-06
  6.70853957982E-06  6.79631993040E-06  6.88524887523E-06  6.97534144350E-06
  7.06661286108E-06  7.15907855305E-06  7.25275414633E-06  7.34765547233E-06
  7.44379856959E-06  7.54119968653E-06  7.63987528416E-06  7.73984203890E-06
  7.84111684536E-06  7.94371681924E-06  8.04765930016E-06  8.15296185466E-06
  8.25964227912E-06  8.36771860278E-06  8.47720909080E-06  8.58813224733E-06
  8.70050681866E-06  8.81435179634E-06  8.92968642046E-06  9.04653018284E-06
  9.16490283035E-06  9.28482436825E-06  9.40631506357E-06  9.52939544852E-06
  9.65408632398E-06  9.78040876301E-06  9.90838411440E-06  1.00380340063E-05
  1.01693803498E-05  1.03024453428E-05  1.04372514736E-05  1.05738215247E-05
  1.07121785769E-05  1.08523460127E-05  1.09943475208E-05  1.11382070998E-05
  1.12839490624E-05  1.14315980391E-05  1.15811789832E-05  1.17327171741E-05
  1.18862382220E-05  1.20417680726E-05  1.21993330106E-05  1.23589596649E-05
  1.25206750128E-05  1.26845063846E-05  1.28504814682E-05  1.30186283137E-05
  1.31889753384E-05  1.33615513313E-05  1.35363854582E-05  1.37135072665E-05
  1.38929466901E-05  1.40747340548E-05  1.42589000830E-05  1.44454758993E-05
  1.46344930354E-05  1.48259834356E-05  1.50199794624E-05  1.52165139014E-05
  1.54156199674E-05  1.56173313100E-05  1.58216820187E-05  1.60287066293E-05
  1.62384401295E-05  1.64509179647E-05  1.66661760443E-05  1.68842507472E-05
  1.71051789287E-05  1.73289979261E-05  1.75557455655E-05  1.77854601676E-05
  1.80181805548E-05  1.82539460575E-05  1.84927965204E-05  1.87347723100E-05
  1.89799143207E-05  1.92282639821E-05  1.94798632658E-05  1.97347546929E-05
  1.99929813404E-05  2.02545868494E-05  2.05196154317E-05  2.07881118779E-05
  2.10601215645E-05  2.13356904617E-05  2.16148651415E-05  2.18976927848E-05
  2.21842211904E-05  2.24744987822E-05  2.27685746177E-05  2.30664983966E-05
  2.33683204685E-05  2.36740918423E-05  2.39838641939E-05  2.42976898757E-05
  2.46156219248E-05  2.49377140727E-05  2.52640207536E-05  2.55945971141E-05
  2.59294990225E-05  2.62687830779E-05  2.66125066202E-05  2.69607277394E-05
  2.73135052858E-05  2.76708988796E-05  2.80329689212E-05  2.83997766012E-05
  2.87713839111E-05  2.91478536533E-05  2.95292494522E-05  2.99156357645E-05
  3.03070778905E-05  3.07036419848E-05  3.11053950676E-05  3.15124050362E-05
  3.19247406763E-05  3.23424716736E-05  3.27656686255E-05  3.31944030534E-05
  3.36287474145E-05  3.40687751138E-05  3.45145605173E-05  3.49661789637E-05
  3.54237067775E-05  3.58872212821E-05  3.63568008125E-05  3.68325247287E-05
  3.73144734293E-05  3.78027283647E-05  3.82973720512E-05  3.87984880848E-05
  3.93061611551E-05  3.98204770602E-05  4.03415227208E-05  4.08693861947E-05
  4.14041566921E-05  4.19459245906E-05  4.24947814501E-05  4.30508200289E-05
  4.36141342987E-05  4.41848194610E-05  4.47629719630E-05  4.53486895137E-05
  4.59420711010E-05  4.65432170075E-05  4.71522288286E-05  4.77692094885E-05
  4.83942632586E-05  4.90274957743E-05  4.96690140535E-05  5.03189265143E-05