<UPF version="2.0.1">
  <PP_INFO>

 This pseudopotential file has been produced using the code
 ONCVPSP  (Optimized Norm-Conservinng Vanderbilt PSeudopotential)
 scalar-relativistic version 2.1.1, 03/26/2014 by D. R. Hamann
 The code is available through a link at URL www.mat-simresearch.com.
 Documentation with the package provides a full discription of the
 input data below.


 While it is not required under the terms of the GNU GPL, it is
 suggested that you cite D. R. Hamann, Phys. Rev. B 88, 085117 (2013)
 in any publication using these pseudopotentials.


 Copyright 2015 The Regents of the University of California
 
 This work is licensed under the Creative Commons Attribution-ShareAlike 
 4.0 International License. To view a copy of this license, visit 
 http://creativecommons.org/licenses/by-sa/4.0/ or send a letter to 
 Creative Commons, PO Box 1866, Mountain View, CA 94042, USA.
 
 This pseudopotential is part of the Schlipf-Gygi norm-conserving 
 pseudopotential library. Its construction parameters were tuned to 
 reproduce materials of a training set with very high accuracy and 
 should be suitable as a general purpose pseudopotential to treat a 
 variety of different compounds. For details of the construction and 
 testing of the pseudopotential please refer to:
 
 [insert reference to paper here]
 
 We kindly ask that you include this reference in all publications 
 associated to this pseudopotential.


    <PP_INPUTFILE>
# ATOM AND REFERENCE CONFIGURATION
# atsym  z    nc    nv    iexc   psfile
  As 33.00     6     2     4      upf
#
#   n    l    f        energy (Ha)
    1    0    2.00
    2    0    2.00
    2    1    6.00
    3    0    2.00
    3    1    6.00
    3    2   10.00
    4    0    2.00
    4    1    3.00
#
# PSEUDOPOTENTIAL AND OPTIMIZATION
# lmax
    2
#
#   l,   rc,     ep,   ncon, nbas, qcut
    0   2.64932  -0.53265    5    8   4.92865
    1   2.61791  -0.19091    5    8   5.22323
    2   2.61791   0.10183    5    8   5.34775
#
# LOCAL POTENTIAL
# lloc, lpopt,  rc(5),   dvloc0
    4    5   2.43709      0.00000
#
# VANDERBILT-KLEINMAN-BYLANDER PROJECTORs
# l, nproj, debl
    0    2   1.48654
    1    2   1.49733
    2    2   1.52943
#
# MODEL CORE CHARGE
# icmod, fcfact
    0   0.00000
#
# LOG DERIVATIVE ANALYSIS
# epsh1, epsh2, depsh
   -5.00    3.00    0.02
#
# OUTPUT GRID
# rlmax, drl
    6.00    0.01
#
# TEST CONFIGURATIONS
# ncnf
    0
# nvcnf
#   n    l    f
    </PP_INPUTFILE>
  </PP_INFO>
  <!--                               -->
  <!-- END OF HUMAN READABLE SECTION -->
  <!--                               -->
    <PP_HEADER
       generated="Generated using ONCVPSP code by D. R. Hamann"
       author="Martin Schlipf and Francois Gygi"
       date="150105"
       comment=""
       element="As"
       pseudo_type="NC"
       relativistic="scalar"
       is_ultrasoft="F"
       is_paw="F"
       is_coulomb="F"
       has_so="F"
       has_wfc="F"
       has_gipaw="F"
       core_correction="F"
       functional="PBE"
       z_valence="    5.00"
       total_psenergy="  -6.15580632804E+00"
       rho_cutoff="   6.01000000000E+00"
       l_max="2"
       l_local="-1"
       mesh_size="   602"
       number_of_wfc="0"
       number_of_proj="6"/>
 <PP_MESH>
   <PP_R type="real"  size=" 602" columns="8">
    0.0000    0.0100    0.0200    0.0300    0.0400    0.0500    0.0600    0.0700
    0.0800    0.0900    0.1000    0.1100    0.1200    0.1300    0.1400    0.1500
    0.1600    0.1700    0.1800    0.1900    0.2000    0.2100    0.2200    0.2300
    0.2400    0.2500    0.2600    0.2700    0.2800    0.2900    0.3000    0.3100
    0.3200    0.3300    0.3400    0.3500    0.3600    0.3700    0.3800    0.3900
    0.4000    0.4100    0.4200    0.4300    0.4400    0.4500    0.4600    0.4700
    0.4800    0.4900    0.5000    0.5100    0.5200    0.5300    0.5400    0.5500
    0.5600    0.5700    0.5800    0.5900    0.6000    0.6100    0.6200    0.6300
    0.6400    0.6500    0.6600    0.6700    0.6800    0.6900    0.7000    0.7100
    0.7200    0.7300    0.7400    0.7500    0.7600    0.7700    0.7800    0.7900
    0.8000    0.8100    0.8200    0.8300    0.8400    0.8500    0.8600    0.8700
    0.8800    0.8900    0.9000    0.9100    0.9200    0.9300    0.9400    0.9500
    0.9600    0.9700    0.9800    0.9900    1.0000    1.0100    1.0200    1.0300
    1.0400    1.0500    1.0600    1.0700    1.0800    1.0900    1.1000    1.1100
    1.1200    1.1300    1.1400    1.1500    1.1600    1.1700    1.1800    1.1900
    1.2000    1.2100    1.2200    1.2300    1.2400    1.2500    1.2600    1.2700
    1.2800    1.2900    1.3000    1.3100    1.3200    1.3300    1.3400    1.3500
    1.3600    1.3700    1.3800    1.3900    1.4000    1.4100    1.4200    1.4300
    1.4400    1.4500    1.4600    1.4700    1.4800    1.4900    1.5000    1.5100
    1.5200    1.5300    1.5400    1.5500    1.5600    1.5700    1.5800    1.5900
    1.6000    1.6100    1.6200    1.6300    1.6400    1.6500    1.6600    1.6700
    1.6800    1.6900    1.7000    1.7100    1.7200    1.7300    1.7400    1.7500
    1.7600    1.7700    1.7800    1.7900    1.8000    1.8100    1.8200    1.8300
    1.8400    1.8500    1.8600    1.8700    1.8800    1.8900    1.9000    1.9100
    1.9200    1.9300    1.9400    1.9500    1.9600    1.9700    1.9800    1.9900
    2.0000    2.0100    2.0200    2.0300    2.0400    2.0500    2.0600    2.0700
    2.0800    2.0900    2.1000    2.1100    2.1200    2.1300    2.1400    2.1500
    2.1600    2.1700    2.1800    2.1900    2.2000    2.2100    2.2200    2.2300
    2.2400    2.2500    2.2600    2.2700    2.2800    2.2900    2.3000    2.3100
    2.3200    2.3300    2.3400    2.3500    2.3600    2.3700    2.3800    2.3900
    2.4000    2.4100    2.4200    2.4300    2.4400    2.4500    2.4600    2.4700
    2.4800    2.4900    2.5000    2.5100    2.5200    2.5300    2.5400    2.5500
    2.5600    2.5700    2.5800    2.5900    2.6000    2.6100    2.6200    2.6300
    2.6400    2.6500    2.6600    2.6700    2.6800    2.6900    2.7000    2.7100
    2.7200    2.7300    2.7400    2.7500    2.7600    2.7700    2.7800    2.7900
    2.8000    2.8100    2.8200    2.8300    2.8400    2.8500    2.8600    2.8700
    2.8800    2.8900    2.9000    2.9100    2.9200    2.9300    2.9400    2.9500
    2.9600    2.9700    2.9800    2.9900    3.0000    3.0100    3.0200    3.0300
    3.0400    3.0500    3.0600    3.0700    3.0800    3.0900    3.1000    3.1100
    3.1200    3.1300    3.1400    3.1500    3.1600    3.1700    3.1800    3.1900
    3.2000    3.2100    3.2200    3.2300    3.2400    3.2500    3.2600    3.2700
    3.2800    3.2900    3.3000    3.3100    3.3200    3.3300    3.3400    3.3500
    3.3600    3.3700    3.3800    3.3900    3.4000    3.4100    3.4200    3.4300
    3.4400    3.4500    3.4600    3.4700    3.4800    3.4900    3.5000    3.5100
    3.5200    3.5300    3.5400    3.5500    3.5600    3.5700    3.5800    3.5900
    3.6000    3.6100    3.6200    3.6300    3.6400    3.6500    3.6600    3.6700
    3.6800    3.6900    3.7000    3.7100    3.7200    3.7300    3.7400    3.7500
    3.7600    3.7700    3.7800    3.7900    3.8000    3.8100    3.8200    3.8300
    3.8400    3.8500    3.8600    3.8700    3.8800    3.8900    3.9000    3.9100
    3.9200    3.9300    3.9400    3.9500    3.9600    3.9700    3.9800    3.9900
    4.0000    4.0100    4.0200    4.0300    4.0400    4.0500    4.0600    4.0700
    4.0800    4.0900    4.1000    4.1100    4.1200    4.1300    4.1400    4.1500
    4.1600    4.1700    4.1800    4.1900    4.2000    4.2100    4.2200    4.2300
    4.2400    4.2500    4.2600    4.2700    4.2800    4.2900    4.3000    4.3100
    4.3200    4.3300    4.3400    4.3500    4.3600    4.3700    4.3800    4.3900
    4.4000    4.4100    4.4200    4.4300    4.4400    4.4500    4.4600    4.4700
    4.4800    4.4900    4.5000    4.5100    4.5200    4.5300    4.5400    4.5500
    4.5600    4.5700    4.5800    4.5900    4.6000    4.6100    4.6200    4.6300
    4.6400    4.6500    4.6600    4.6700    4.6800    4.6900    4.7000    4.7100
    4.7200    4.7300    4.7400    4.7500    4.7600    4.7700    4.7800    4.7900
    4.8000    4.8100    4.8200    4.8300    4.8400    4.8500    4.8600    4.8700
    4.8800    4.8900    4.9000    4.9100    4.9200    4.9300    4.9400    4.9500
    4.9600    4.9700    4.9800    4.9900    5.0000    5.0100    5.0200    5.0300
    5.0400    5.0500    5.0600    5.0700    5.0800    5.0900    5.1000    5.1100
    5.1200    5.1300    5.1400    5.1500    5.1600    5.1700    5.1800    5.1900
    5.2000    5.2100    5.2200    5.2300    5.2400    5.2500    5.2600    5.2700
    5.2800    5.2900    5.3000    5.3100    5.3200    5.3300    5.3400    5.3500
    5.3600    5.3700    5.3800    5.3900    5.4000    5.4100    5.4200    5.4300
    5.4400    5.4500    5.4600    5.4700    5.4800    5.4900    5.5000    5.5100
    5.5200    5.5300    5.5400    5.5500    5.5600    5.5700    5.5800    5.5900
    5.6000    5.6100    5.6200    5.6300    5.6400    5.6500    5.6600    5.6700
    5.6800    5.6900    5.7000    5.7100    5.7200    5.7300    5.7400    5.7500
    5.7600    5.7700    5.7800    5.7900    5.8000    5.8100    5.8200    5.8300
    5.8400    5.8500    5.8600    5.8700    5.8800    5.8900    5.9000    5.9100
    5.9200    5.9300    5.9400    5.9500    5.9600    5.9700    5.9800    5.9900
    6.0000    6.0100
   </PP_R>
   <PP_RAB type="real"  size=" 602" columns="8">
    0.0100    0.0100    0.0100    0.0100    0.0100    0.0100    0.0100    0.0100
    0.0100    0.0100    0.0100    0.0100    0.0100    0.0100    0.0100    0.0100
    0.0100    0.0100    0.0100    0.0100    0.0100    0.0100    0.0100    0.0100
    0.0100    0.0100    0.0100    0.0100    0.0100    0.0100    0.0100    0.0100
    0.0100    0.0100    0.0100    0.0100    0.0100    0.0100    0.0100    0.0100
    0.0100    0.0100    0.0100    0.0100    0.0100    0.0100    0.0100    0.0100
    0.0100    0.0100    0.0100    0.0100    0.0100    0.0100    0.0100    0.0100
    0.0100    0.0100    0.0100    0.0100    0.0100    0.0100    0.0100    0.0100
    0.0100    0.0100    0.0100    0.0100    0.0100    0.0100    0.0100    0.0100
    0.0100    0.0100    0.0100    0.0100    0.0100    0.0100    0.0100    0.0100
    0.0100    0.0100    0.0100    0.0100    0.0100    0.0100    0.0100    0.0100
    0.0100    0.0100    0.0100    0.0100    0.0100    0.0100    0.0100    0.0100
    0.0100    0.0100    0.0100    0.0100    0.0100    0.0100    0.0100    0.0100
    0.0100    0.0100    0.0100    0.0100    0.0100    0.0100    0.0100    0.0100
    0.0100    0.0100    0.0100    0.0100    0.0100    0.0100    0.0100    0.0100
    0.0100    0.0100    0.0100    0.0100    0.0100    0.0100    0.0100    0.0100
    0.0100    0.0100    0.0100    0.0100    0.0100    0.0100    0.0100    0.0100
    0.0100    0.0100    0.0100    0.0100    0.0100    0.0100    0.0100    0.0100
    0.0100    0.0100    0.0100    0.0100    0.0100    0.0100    0.0100    0.0100
    0.0100    0.0100    0.0100    0.0100    0.0100    0.0100    0.0100    0.0100
    0.0100    0.0100    0.0100    0.0100    0.0100    0.0100    0.0100    0.0100
    0.0100    0.0100    0.0100    0.0100    0.0100    0.0100    0.0100    0.0100
    0.0100    0.0100    0.0100    0.0100    0.0100    0.0100    0.0100    0.0100
    0.0100    0.0100    0.0100    0.0100    0.0100    0.0100    0.0100    0.0100
    0.0100    0.0100    0.0100    0.0100    0.0100    0.0100    0.0100    0.0100
    0.0100    0.0100    0.0100    0.0100    0.0100    0.0100    0.0100    0.0100
    0.0100    0.0100    0.0100    0.0100    0.0100    0.0100    0.0100    0.0100
    0.0100    0.0100    0.0100    0.0100    0.0100    0.0100    0.0100    0.0100
    0.0100    0.0100    0.0100    0.0100    0.0100    0.0100    0.0100    0.0100
    0.0100    0.0100    0.0100    0.0100    0.0100    0.0100    0.0100    0.0100
    0.0100    0.0100    0.0100    0.0100    0.0100    0.0100    0.0100    0.0100
    0.0100    0.0100    0.0100    0.0100    0.0100    0.0100    0.0100    0.0100
    0.0100    0.0100    0.0100    0.0100    0.0100    0.0100    0.0100    0.0100
    0.0100    0.0100    0.0100    0.0100    0.0100    0.0100    0.0100    0.0100
    0.0100    0.0100    0.0100    0.0100    0.0100    0.0100    0.0100    0.0100
    0.0100    0.0100    0.0100    0.0100    0.0100    0.0100    0.0100    0.0100
    0.0100    0.0100    0.0100    0.0100    0.0100    0.0100    0.0100    0.0100
    0.0100    0.0100    0.0100    0.0100    0.0100    0.0100    0.0100    0.0100
    0.0100    0.0100    0.0100    0.0100    0.0100    0.0100    0.0100    0.0100
    0.0100    0.0100    0.0100    0.0100    0.0100    0.0100    0.0100    0.0100
    0.0100    0.0100    0.0100    0.0100    0.0100    0.0100    0.0100    0.0100
    0.0100    0.0100    0.0100    0.0100    0.0100    0.0100    0.0100    0.0100
    0.0100    0.0100    0.0100    0.0100    0.0100    0.0100    0.0100    0.0100
    0.0100    0.0100    0.0100    0.0100    0.0100    0.0100    0.0100    0.0100
    0.0100    0.0100    0.0100    0.0100    0.0100    0.0100    0.0100    0.0100
    0.0100    0.0100    0.0100    0.0100    0.0100    0.0100    0.0100    0.0100
    0.0100    0.0100    0.0100    0.0100    0.0100    0.0100    0.0100    0.0100
    0.0100    0.0100    0.0100    0.0100    0.0100    0.0100    0.0100    0.0100
    0.0100    0.0100    0.0100    0.0100    0.0100    0.0100    0.0100    0.0100
    0.0100    0.0100    0.0100    0.0100    0.0100    0.0100    0.0100    0.0100
    0.0100    0.0100    0.0100    0.0100    0.0100    0.0100    0.0100    0.0100
    0.0100    0.0100    0.0100    0.0100    0.0100    0.0100    0.0100    0.0100
    0.0100    0.0100    0.0100    0.0100    0.0100    0.0100    0.0100    0.0100
    0.0100    0.0100    0.0100    0.0100    0.0100    0.0100    0.0100    0.0100
    0.0100    0.0100    0.0100    0.0100    0.0100    0.0100    0.0100    0.0100
    0.0100    0.0100    0.0100    0.0100    0.0100    0.0100    0.0100    0.0100
    0.0100    0.0100    0.0100    0.0100    0.0100    0.0100    0.0100    0.0100
    0.0100    0.0100    0.0100    0.0100    0.0100    0.0100    0.0100    0.0100
    0.0100    0.0100    0.0100    0.0100    0.0100    0.0100    0.0100    0.0100
    0.0100    0.0100    0.0100    0.0100    0.0100    0.0100    0.0100    0.0100
    0.0100    0.0100    0.0100    0.0100    0.0100    0.0100    0.0100    0.0100
    0.0100    0.0100    0.0100    0.0100    0.0100    0.0100    0.0100    0.0100
    0.0100    0.0100    0.0100    0.0100    0.0100    0.0100    0.0100    0.0100
    0.0100    0.0100    0.0100    0.0100    0.0100    0.0100    0.0100    0.0100
    0.0100    0.0100    0.0100    0.0100    0.0100    0.0100    0.0100    0.0100
    0.0100    0.0100    0.0100    0.0100    0.0100    0.0100    0.0100    0.0100
    0.0100    0.0100    0.0100    0.0100    0.0100    0.0100    0.0100    0.0100
    0.0100    0.0100    0.0100    0.0100    0.0100    0.0100    0.0100    0.0100
    0.0100    0.0100    0.0100    0.0100    0.0100    0.0100    0.0100    0.0100
    0.0100    0.0100    0.0100    0.0100    0.0100    0.0100    0.0100    0.0100
    0.0100    0.0100    0.0100    0.0100    0.0100    0.0100    0.0100    0.0100
    0.0100    0.0100    0.0100    0.0100    0.0100    0.0100    0.0100    0.0100
    0.0100    0.0100    0.0100    0.0100    0.0100    0.0100    0.0100    0.0100
    0.0100    0.0100    0.0100    0.0100    0.0100    0.0100    0.0100    0.0100
    0.0100    0.0100    0.0100    0.0100    0.0100    0.0100    0.0100    0.0100
    0.0100    0.0100
   </PP_RAB>
 </PP_MESH>
  <PP_LOCAL type="real"  size=" 602" columns="4">
   -9.4761501159E+00   -9.5123051208E+00   -9.6542823739E+00   -9.8611326389E+00
   -1.0091906679E+01   -1.0302669909E+01   -1.0460207142E+01   -1.0549858404E+01
   -1.0574484258E+01   -1.0547836171E+01   -1.0487209305E+01   -1.0408338264E+01
   -1.0323094372E+01   -1.0239212802E+01   -1.0161028772E+01   -1.0090482276E+01
   -1.0028013623E+01   -9.9732263468E+00   -9.9253240690E+00   -9.8833730637E+00
   -9.8464462976E+00   -9.8136934818E+00   -9.7843680087E+00   -9.7578306742E+00
   -9.7335419821E+00   -9.7110499278E+00   -9.6899766242E+00   -9.6700058751E+00
   -9.6508721042E+00   -9.6323510971E+00   -9.6142523622E+00   -9.5964129586E+00
   -9.5786925598E+00   -9.5609695939E+00   -9.5431381882E+00   -9.5251057811E+00
   -9.5067913431E+00   -9.4881239489E+00   -9.4690417057E+00   -9.4494909963E+00
   -9.4294258390E+00   -9.4088074425E+00   -9.3876038612E+00   -9.3657897227E+00
   -9.3433460029E+00   -9.3202598242E+00   -9.2965242614E+00   -9.2721381382E+00
   -9.2471057855E+00   -9.2214368449E+00   -9.1951459441E+00   -9.1682523686E+00
   -9.1407797269E+00   -9.1127555899E+00   -9.0842109796E+00   -9.0551800244E+00
   -9.0256993967E+00   -8.9958078834E+00   -8.9655458551E+00   -8.9349547997E+00
   -8.9040768163E+00   -8.8729541614E+00   -8.8416288128E+00   -8.8101420400E+00
   -8.7785340368E+00   -8.7468436287E+00   -8.7151079177E+00   -8.6833620727E+00
   -8.6516391513E+00   -8.6199699788E+00   -8.5883829199E+00   -8.5569039296E+00
   -8.5255564958E+00   -8.4943616430E+00   -8.4633379848E+00   -8.4325017360E+00
   -8.4018668106E+00   -8.3714449376E+00   -8.3412457501E+00   -8.3112768947E+00
   -8.2815441449E+00   -8.2520515141E+00   -8.2228013665E+00   -8.1937945244E+00
   -8.1650303689E+00   -8.1365069356E+00   -8.1082210017E+00   -8.0801681679E+00
   -8.0523429315E+00   -8.0247387549E+00   -7.9973481272E+00   -7.9701626222E+00
   -7.9431729517E+00   -7.9163690172E+00   -7.8897399594E+00   -7.8632742074E+00
   -7.8369595446E+00   -7.8107831135E+00   -7.7847315083E+00   -7.7587908275E+00
   -7.7329467314E+00   -7.7071845071E+00   -7.6814891388E+00   -7.6558453796E+00
   -7.6302378115E+00   -7.6046509619E+00   -7.5790693759E+00   -7.5534777031E+00
   -7.5278607479E+00   -7.5022036592E+00   -7.4764919575E+00   -7.4507116370E+00
   -7.4248491785E+00   -7.3988918045E+00   -7.3728274962E+00   -7.3466450179E+00
   -7.3203338568E+00   -7.2938847088E+00   -7.2672892184E+00   -7.2405399622E+00
   -7.2136305799E+00   -7.1865561119E+00   -7.1593125554E+00   -7.1318967687E+00
   -7.1043073217E+00   -7.0765436309E+00   -7.0486059085E+00   -7.0204960093E+00
   -6.9922165713E+00   -6.9637708812E+00   -6.9351637608E+00   -6.9064005612E+00
   -6.8774872528E+00   -6.8484310216E+00   -6.8192393216E+00   -6.7899202877E+00
   -6.7604827304E+00   -6.7309356122E+00   -6.7012885249E+00   -6.6715512214E+00
   -6.6417336574E+00   -6.6118460477E+00   -6.5818986019E+00   -6.5519016354E+00
   -6.5218653846E+00   -6.4918001022E+00   -6.4617157868E+00   -6.4316224812E+00
   -6.4015298070E+00   -6.3714473408E+00   -6.3413843226E+00   -6.3113496760E+00
   -6.2813522051E+00   -6.2514000741E+00   -6.2215015998E+00   -6.1916641766E+00
   -6.1618954633E+00   -6.1322022132E+00   -6.1025913102E+00   -6.0730689176E+00
   -6.0436411338E+00   -6.0143135355E+00   -5.9850914682E+00   -5.9559799288E+00
   -5.9269835596E+00   -5.8981067895E+00   -5.8693536179E+00   -5.8407279224E+00
   -5.8122331246E+00   -5.7838725721E+00   -5.7556491748E+00   -5.7275657759E+00
   -5.6996248380E+00   -5.6718287288E+00   -5.6441795240E+00   -5.6166791476E+00
   -5.5893293439E+00   -5.5621316275E+00   -5.5350874597E+00   -5.5081979836E+00
   -5.4814644181E+00   -5.4548875747E+00   -5.4284684637E+00   -5.4022076140E+00
   -5.3761058326E+00   -5.3501634530E+00   -5.3243810234E+00   -5.2987587887E+00
   -5.2732970472E+00   -5.2479959736E+00   -5.2228556557E+00   -5.1978762074E+00
   -5.1730575491E+00   -5.1483997348E+00   -5.1239025827E+00   -5.0995660244E+00
   -5.0753898689E+00   -5.0513739273E+00   -5.0275180010E+00   -5.0038218185E+00
   -4.9802851630E+00   -4.9569077268E+00   -4.9336892421E+00   -4.9106294108E+00
   -4.8877279262E+00   -4.8649844895E+00   -4.8423987840E+00   -4.8199704996E+00
   -4.7976993257E+00   -4.7755849501E+00   -4.7536270621E+00   -4.7318253602E+00
   -4.7101795337E+00   -4.6886892872E+00   -4.6673543229E+00   -4.6461743417E+00
   -4.6251490546E+00   -4.6042781694E+00   -4.5835613922E+00   -4.5629984298E+00
   -4.5425889963E+00   -4.5223327756E+00   -4.5022294763E+00   -4.4822787817E+00
   -4.4624803442E+00   -4.4428338722E+00   -4.4233389658E+00   -4.4039952472E+00
   -4.3848023864E+00   -4.3657598682E+00   -4.3468672926E+00   -4.3281241942E+00
   -4.3095299556E+00   -4.2910841330E+00   -4.2727860504E+00   -4.2546349703E+00
   -4.2366303865E+00   -4.2187713353E+00   -4.2010569477E+00   -4.1834865989E+00
   -4.1660589931E+00   -4.1487731317E+00   -4.1316281021E+00   -4.1146223680E+00
   -4.0977546771E+00   -4.0810237617E+00   -4.0644281324E+00   -4.0479663765E+00
   -4.0316370998E+00   -4.0154389736E+00   -3.9993706294E+00   -3.9834307102E+00
   -3.9676178859E+00   -3.9519308219E+00   -3.9363681726E+00   -3.9209285682E+00
   -3.9056106725E+00   -3.8904131267E+00   -3.8753345033E+00   -3.8603734206E+00
   -3.8455284905E+00   -3.8307982688E+00   -3.8161813157E+00   -3.8016761708E+00
   -3.7872815538E+00   -3.7729960923E+00   -3.7588182461E+00   -3.7447470174E+00
   -3.7307811991E+00   -3.7169195189E+00   -3.7031608665E+00   -3.6895040900E+00
   -3.6759479686E+00   -3.6624914063E+00   -3.6491333259E+00   -3.6358725763E+00
   -3.6227080575E+00   -3.6096387818E+00   -3.5966636903E+00   -3.5837816758E+00
   -3.5709918176E+00   -3.5582931188E+00   -3.5456845151E+00   -3.5331650951E+00
   -3.5207339296E+00   -3.5083900343E+00   -3.4961324645E+00   -3.4839603677E+00
   -3.4718728413E+00   -3.4598689042E+00   -3.4479477746E+00   -3.4361085938E+00
   -3.4243504585E+00   -3.4126725379E+00   -3.4010740517E+00   -3.3895541786E+00
   -3.3781120339E+00   -3.3667469105E+00   -3.3554580299E+00   -3.3442445745E+00
   -3.3331057847E+00   -3.3220409575E+00   -3.3110493515E+00   -3.3001301593E+00
   -3.2892827318E+00   -3.2785063692E+00   -3.2678003438E+00   -3.2571639306E+00
   -3.2465965079E+00   -3.2360974035E+00   -3.2256659008E+00   -3.2153013648E+00
   -3.2050031822E+00   -3.1947707127E+00   -3.1846032552E+00   -3.1745002518E+00
   -3.1644610989E+00   -3.1544851758E+00   -3.1445718327E+00   -3.1347205440E+00
   -3.1249307287E+00   -3.1152017824E+00   -3.1055331154E+00   -3.0959242164E+00
   -3.0863745322E+00   -3.0768834766E+00   -3.0674505106E+00   -3.0580751386E+00
   -3.0487568335E+00   -3.0394950300E+00   -3.0302892300E+00   -3.0211389554E+00
   -3.0120437042E+00   -3.0030029335E+00   -2.9940161773E+00   -2.9850829772E+00
   -2.9762028548E+00   -2.9673752913E+00   -2.9585998448E+00   -2.9498760782E+00
   -2.9412035356E+00   -2.9325817236E+00   -2.9240102171E+00   -2.9154886018E+00
   -2.9070164433E+00   -2.8985932753E+00   -2.8902186817E+00   -2.8818922733E+00
   -2.8736136358E+00   -2.8653823313E+00   -2.8571979466E+00   -2.8490601183E+00
   -2.8409684517E+00   -2.8329225386E+00   -2.8249219627E+00   -2.8169663874E+00
   -2.8090554365E+00   -2.8011887330E+00   -2.7933658523E+00   -2.7855864852E+00
   -2.7778502730E+00   -2.7701568573E+00   -2.7625058425E+00   -2.7548969052E+00
   -2.7473297174E+00   -2.7398039372E+00   -2.7323192029E+00   -2.7248751688E+00
   -2.7174715389E+00   -2.7101079872E+00   -2.7027841874E+00   -2.6954997678E+00
   -2.6882544639E+00   -2.6810479648E+00   -2.6738799600E+00   -2.6667501116E+00
   -2.6596581236E+00   -2.6526037200E+00   -2.6455866046E+00   -2.6386064774E+00
   -2.6316630054E+00   -2.6247559473E+00   -2.6178850205E+00   -2.6110499426E+00
   -2.6042504071E+00   -2.5974861408E+00   -2.5907568956E+00   -2.5840624021E+00
   -2.5774023908E+00   -2.5707765524E+00   -2.5641846655E+00   -2.5576264764E+00
   -2.5511017282E+00   -2.5446101520E+00   -2.5381514748E+00   -2.5317254826E+00
   -2.5253319302E+00   -2.5189705725E+00   -2.5126411410E+00   -2.5063434018E+00
   -2.5000771397E+00   -2.4938421208E+00   -2.4876381115E+00   -2.4814648462E+00
   -2.4753221226E+00   -2.4692097266E+00   -2.4631274352E+00   -2.4570750255E+00
   -2.4510522369E+00   -2.4450588925E+00   -2.4390947810E+00   -2.4331596898E+00
   -2.4272534032E+00   -2.4213756772E+00   -2.4155263441E+00   -2.4097052010E+00
   -2.4039120451E+00   -2.3981466684E+00   -2.3924088422E+00   -2.3866984052E+00
   -2.3810151641E+00   -2.3753589254E+00   -2.3697294906E+00   -2.3641266408E+00
   -2.3585502230E+00   -2.3530000527E+00   -2.3474759455E+00   -2.3419777142E+00
   -2.3365051444E+00   -2.3310580931E+00   -2.3256363843E+00   -2.3202398420E+00
   -2.3148682904E+00   -2.3095215202E+00   -2.3041993943E+00   -2.2989017468E+00
   -2.2936284097E+00   -2.2883792152E+00   -2.2831539692E+00   -2.2779525275E+00
   -2.2727747385E+00   -2.2676204420E+00   -2.2624894779E+00   -2.2573816686E+00
   -2.2522968587E+00   -2.2472349122E+00   -2.2421956762E+00   -2.2371789980E+00
   -2.2321847182E+00   -2.2272126662E+00   -2.2222627225E+00   -2.2173347414E+00
   -2.2124285773E+00   -2.2075440846E+00   -2.2026810909E+00   -2.1978394775E+00
   -2.1930191108E+00   -2.1882198520E+00   -2.1834415623E+00   -2.1786840901E+00
   -2.1739472926E+00   -2.1692310563E+00   -2.1645352488E+00   -2.1598597378E+00
   -2.1552043908E+00   -2.1505690480E+00   -2.1459536063E+00   -2.1413579428E+00
   -2.1367819311E+00   -2.1322254451E+00   -2.1276883485E+00   -2.1231705062E+00
   -2.1186718183E+00   -2.1141921644E+00   -2.1097314239E+00   -2.1052894764E+00
   -2.1008661813E+00   -2.0964614328E+00   -2.0920751253E+00   -2.0877071441E+00
   -2.0833573743E+00   -2.0790257011E+00   -2.0747119815E+00   -2.0704161335E+00
   -2.0661380480E+00   -2.0618776156E+00   -2.0576347266E+00   -2.0534092656E+00
   -2.0492011080E+00   -2.0450101714E+00   -2.0408363515E+00   -2.0366795438E+00
   -2.0325396440E+00   -2.0284165372E+00   -2.0243101138E+00   -2.0202202914E+00
   -2.0161469707E+00   -2.0120900520E+00   -2.0080494358E+00   -2.0040250100E+00
   -2.0000166750E+00   -1.9960243505E+00   -1.9920479415E+00   -1.9880873531E+00
   -1.9841424904E+00   -1.9802132459E+00   -1.9762995254E+00   -1.9724012522E+00
   -1.9685183359E+00   -1.9646506860E+00   -1.9607982120E+00   -1.9569608124E+00
   -1.9531383944E+00   -1.9493308866E+00   -1.9455382029E+00   -1.9417602568E+00
   -1.9379969621E+00   -1.9342482251E+00   -1.9305139503E+00   -1.9267940732E+00
   -1.9230885114E+00   -1.9193971828E+00   -1.9157200051E+00   -1.9120568936E+00
   -1.9084077468E+00   -1.9047725081E+00   -1.9011510991E+00   -1.8975434415E+00
   -1.8939494568E+00   -1.8903690666E+00   -1.8868021728E+00   -1.8832487151E+00
   -1.8797086232E+00   -1.8761818223E+00   -1.8726682375E+00   -1.8691677942E+00
   -1.8656804064E+00   -1.8622059996E+00   -1.8587445149E+00   -1.8552958811E+00
   -1.8518600268E+00   -1.8484368808E+00   -1.8450263708E+00   -1.8416284050E+00
   -1.8382429369E+00   -1.8348698987E+00   -1.8315092224E+00   -1.8281608399E+00
   -1.8248246835E+00   -1.8215006729E+00   -1.8181887436E+00   -1.8148888412E+00
   -1.8116009009E+00   -1.8083248579E+00   -1.8050606473E+00   -1.8018082045E+00
   -1.7985674438E+00   -1.7953383232E+00   -1.7921207817E+00   -1.7889147576E+00
   -1.7857201891E+00   -1.7825370145E+00   -1.7793651655E+00   -1.7762045727E+00
   -1.7730551921E+00   -1.7699169649E+00   -1.7667898320E+00   -1.7636737347E+00
   -1.7605686141E+00   -1.7574743996E+00   -1.7543910361E+00   -1.7513184768E+00
   -1.7482566655E+00   -1.7452055462E+00   -1.7421650626E+00   -1.7391351587E+00
   -1.7361157633E+00   -1.7331068316E+00   -1.7301083156E+00   -1.7271201618E+00
   -1.7241423166E+00   -1.7211747265E+00   -1.7182173380E+00   -1.7152700810E+00
   -1.7123329172E+00   -1.7094057990E+00   -1.7064886752E+00   -1.7035814949E+00
   -1.7006842070E+00   -1.6977967605E+00   -1.6949190881E+00   -1.6920511539E+00
   -1.6891929124E+00   -1.6863443149E+00   -1.6835053127E+00   -1.6806758573E+00
   -1.6778559000E+00   -1.6750453773E+00   -1.6722442529E+00   -1.6694524846E+00
   -1.6666700259E+00   -1.6638968306E+00
  </PP_LOCAL>
 <PP_NONLOCAL>
   <PP_BETA.1
       type="real"
       size=" 602"
       columns="4"
       index="1"
       angular_momentum="0"
       cutoff_radius_index=" 268"
       cutoff_radius="    2.6700000000E+00" >
    0.0000000000E+00   -5.0893191989E-03   -1.0249321183E-02   -1.5550304280E-02
   -2.1061799563E-02   -2.6852191353E-02   -3.2988342663E-02   -3.9535227200E-02
   -4.6555569514E-02   -5.4109494836E-02   -6.2254190149E-02   -7.1043577930E-02
   -8.0528004008E-02   -9.0753940874E-02   -1.0176370778E-01   -1.1359520880E-01
   -1.2628169005E-01   -1.3985151715E-01   -1.5432797391E-01   -1.6972908305E-01
   -1.8606745015E-01   -2.0335013073E-01   -2.2157852229E-01   -2.4074828065E-01
   -2.6084926196E-01   -2.8186548964E-01   -3.0377514809E-01   -3.2655060116E-01
   -3.5015843755E-01   -3.7455954131E-01   -3.9970918828E-01   -4.2555716769E-01
   -4.5204792843E-01   -4.7912075010E-01   -5.0670993794E-01   -5.3474503849E-01
   -5.6315108220E-01   -5.9184884265E-01   -6.2075511490E-01   -6.4978302260E-01
   -6.7884233128E-01   -7.0783978438E-01   -7.3667945424E-01   -7.6526310683E-01
   -7.9349057925E-01   -8.2126016834E-01   -8.4846902890E-01   -8.7501357969E-01
   -9.0078990369E-01   -9.2569419569E-01   -9.4962316204E-01   -9.7247443141E-01
   -9.9414698592E-01   -1.0145416201E+00   -1.0335612596E+00   -1.0511114949E+00
   -1.0671008723E+00   -1.0814413705E+00   -1.0940487207E+00   -1.1048428561E+00
   -1.1137481403E+00   -1.1206939147E+00   -1.1256145749E+00   -1.1284501024E+00
   -1.1291462620E+00   -1.1276547809E+00   -1.1239337848E+00   -1.1179479243E+00
   -1.1096685504E+00   -1.0990738569E+00   -1.0861492413E+00   -1.0708872298E+00
   -1.0532876350E+00   -1.0333576347E+00   -1.0111117939E+00   -9.8657215076E-01
   -9.5976817792E-01   -9.3073671535E-01   -8.9952192662E-01   -8.6617520767E-01
   -8.3075506821E-01   -7.9332698592E-01   -7.5396323423E-01   -7.1274268412E-01
   -6.6975058078E-01   -6.2507829583E-01   -5.7882305610E-01   -5.3108764983E-01
   -4.8198011144E-01   -4.3161338593E-01   -3.8010497428E-01   -3.2757656107E-01
   -2.7415362585E-01   -2.1996503975E-01   -1.6514264913E-01   -1.0982084795E-01