<UPF version="2.0.1">
  <PP_INFO>

 This pseudopotential file has been produced using the code
 ONCVPSP  (Optimized Norm-Conservinng Vanderbilt PSeudopotential)
 scalar-relativistic version 2.1.1, 03/26/2014 by D. R. Hamann
 The code is available through a link at URL www.mat-simresearch.com.
 Documentation with the package provides a full discription of the
 input data below.


 While it is not required under the terms of the GNU GPL, it is
 suggested that you cite D. R. Hamann, Phys. Rev. B 88, 085117 (2013)
 in any publication using these pseudopotentials.


 Copyright 2015 The Regents of the University of California
 
 This work is licensed under the Creative Commons Attribution-ShareAlike 
 4.0 International License. To view a copy of this license, visit 
 http://creativecommons.org/licenses/by-sa/4.0/ or send a letter to 
 Creative Commons, PO Box 1866, Mountain View, CA 94042, USA.
 
 This pseudopotential is part of the Schlipf-Gygi norm-conserving 
 pseudopotential library. Its construction parameters were tuned to 
 reproduce materials of a training set with very high accuracy and 
 should be suitable as a general purpose pseudopotential to treat a 
 variety of different compounds. For details of the construction and 
 testing of the pseudopotential please refer to:
 
 [insert reference to paper here]
 
 We kindly ask that you include this reference in all publications 
 associated to this pseudopotential.


    <PP_INPUTFILE>
# ATOM AND REFERENCE CONFIGURATION
# atsym  z    nc    nv    iexc   psfile
  Se 34.00     6     2     4      upf
#
#   n    l    f        energy (Ha)
    1    0    2.00
    2    0    2.00
    2    1    6.00
    3    0    2.00
    3    1    6.00
    3    2   10.00
    4    0    2.00
    4    1    4.00
#
# PSEUDOPOTENTIAL AND OPTIMIZATION
# lmax
    2
#
#   l,   rc,     ep,   ncon, nbas, qcut
    0   2.57140  -0.63530    5    8   4.65254
    1   2.69707  -0.23929    5    8   4.06948
    2   2.57140   0.07681    5    8   4.64417
#
# LOCAL POTENTIAL
# lloc, lpopt,  rc(5),   dvloc0
    4    5   2.48101      0.00000
#
# VANDERBILT-KLEINMAN-BYLANDER PROJECTORs
# l, nproj, debl
    0    2   0.80129
    1    2   1.00032
    2    2   0.64734
#
# MODEL CORE CHARGE
# icmod, fcfact
    0   0.00000
#
# LOG DERIVATIVE ANALYSIS
# epsh1, epsh2, depsh
   -5.00    3.00    0.02
#
# OUTPUT GRID
# rlmax, drl
    6.00    0.01
#
# TEST CONFIGURATIONS
# ncnf
    0
# nvcnf
#   n    l    f
    </PP_INPUTFILE>
  </PP_INFO>
  <!--                               -->
  <!-- END OF HUMAN READABLE SECTION -->
  <!--                               -->
    <PP_HEADER
       generated="Generated using ONCVPSP code by D. R. Hamann"
       author="Martin Schlipf and Francois Gygi"
       date="150105"
       comment=""
       element="Se"
       pseudo_type="NC"
       relativistic="scalar"
       is_ultrasoft="F"
       is_paw="F"
       is_coulomb="F"
       has_so="F"
       has_wfc="F"
       has_gipaw="F"
       core_correction="F"
       functional="PBE"
       z_valence="    6.00"
       total_psenergy="  -9.35095868135E+00"
       rho_cutoff="   6.01000000000E+00"
       l_max="2"
       l_local="-1"
       mesh_size="   602"
       number_of_wfc="0"
       number_of_proj="6"/>
 <PP_MESH>
   <PP_R type="real"  size=" 602" columns="8">
    0.0000    0.0100    0.0200    0.0300    0.0400    0.0500    0.0600    0.0700
    0.0800    0.0900    0.1000    0.1100    0.1200    0.1300    0.1400    0.1500
    0.1600    0.1700    0.1800    0.1900    0.2000    0.2100    0.2200    0.2300
    0.2400    0.2500    0.2600    0.2700    0.2800    0.2900    0.3000    0.3100
    0.3200    0.3300    0.3400    0.3500    0.3600    0.3700    0.3800    0.3900
    0.4000    0.4100    0.4200    0.4300    0.4400    0.4500    0.4600    0.4700
    0.4800    0.4900    0.5000    0.5100    0.5200    0.5300    0.5400    0.5500
    0.5600    0.5700    0.5800    0.5900    0.6000    0.6100    0.6200    0.6300
    0.6400    0.6500    0.6600    0.6700    0.6800    0.6900    0.7000    0.7100
    0.7200    0.7300    0.7400    0.7500    0.7600    0.7700    0.7800    0.7900
    0.8000    0.8100    0.8200    0.8300    0.8400    0.8500    0.8600    0.8700
    0.8800    0.8900    0.9000    0.9100    0.9200    0.9300    0.9400    0.9500
    0.9600    0.9700    0.9800    0.9900    1.0000    1.0100    1.0200    1.0300
    1.0400    1.0500    1.0600    1.0700    1.0800    1.0900    1.1000    1.1100
    1.1200    1.1300    1.1400    1.1500    1.1600    1.1700    1.1800    1.1900
    1.2000    1.2100    1.2200    1.2300    1.2400    1.2500    1.2600    1.2700
    1.2800    1.2900    1.3000    1.3100    1.3200    1.3300    1.3400    1.3500
    1.3600    1.3700    1.3800    1.3900    1.4000    1.4100    1.4200    1.4300
    1.4400    1.4500    1.4600    1.4700    1.4800    1.4900    1.5000    1.5100
    1.5200    1.5300    1.5400    1.5500    1.5600    1.5700    1.5800    1.5900
    1.6000    1.6100    1.6200    1.6300    1.6400    1.6500    1.6600    1.6700
    1.6800    1.6900    1.7000    1.7100    1.7200    1.7300    1.7400    1.7500
    1.7600    1.7700    1.7800    1.7900    1.8000    1.8100    1.8200    1.8300
    1.8400    1.8500    1.8600    1.8700    1.8800    1.8900    1.9000    1.9100
    1.9200    1.9300    1.9400    1.9500    1.9600    1.9700    1.9800    1.9900
    2.0000    2.0100    2.0200    2.0300    2.0400    2.0500    2.0600    2.0700
    2.0800    2.0900    2.1000    2.1100    2.1200    2.1300    2.1400    2.1500
    2.1600    2.1700    2.1800    2.1900    2.2000    2.2100    2.2200    2.2300
    2.2400    2.2500    2.2600    2.2700    2.2800    2.2900    2.3000    2.3100
    2.3200    2.3300    2.3400    2.3500    2.3600    2.3700    2.3800    2.3900
    2.4000    2.4100    2.4200    2.4300    2.4400    2.4500    2.4600    2.4700
    2.4800    2.4900    2.5000    2.5100    2.5200    2.5300    2.5400    2.5500
    2.5600    2.5700    2.5800    2.5900    2.6000    2.6100    2.6200    2.6300
    2.6400    2.6500    2.6600    2.6700    2.6800    2.6900    2.7000    2.7100
    2.7200    2.7300    2.7400    2.7500    2.7600    2.7700    2.7800    2.7900
    2.8000    2.8100    2.8200    2.8300    2.8400    2.8500    2.8600    2.8700
    2.8800    2.8900    2.9000    2.9100    2.9200    2.9300    2.9400    2.9500
    2.9600    2.9700    2.9800    2.9900    3.0000    3.0100    3.0200    3.0300
    3.0400    3.0500    3.0600    3.0700    3.0800    3.0900    3.1000    3.1100
    3.1200    3.1300    3.1400    3.1500    3.1600    3.1700    3.1800    3.1900
    3.2000    3.2100    3.2200    3.2300    3.2400    3.2500    3.2600    3.2700
    3.2800    3.2900    3.3000    3.3100    3.3200    3.3300    3.3400    3.3500
    3.3600    3.3700    3.3800    3.3900    3.4000    3.4100    3.4200    3.4300
    3.4400    3.4500    3.4600    3.4700    3.4800    3.4900    3.5000    3.5100
    3.5200    3.5300    3.5400    3.5500    3.5600    3.5700    3.5800    3.5900
    3.6000    3.6100    3.6200    3.6300    3.6400    3.6500    3.6600    3.6700
    3.6800    3.6900    3.7000    3.7100    3.7200    3.7300    3.7400    3.7500
    3.7600    3.7700    3.7800    3.7900    3.8000    3.8100    3.8200    3.8300
    3.8400    3.8500    3.8600    3.8700    3.8800    3.8900    3.9000    3.9100
    3.9200    3.9300    3.9400    3.9500    3.9600    3.9700    3.9800    3.9900
    4.0000    4.0100    4.0200    4.0300    4.0400    4.0500    4.0600    4.0700
    4.0800    4.0900    4.1000    4.1100    4.1200    4.1300    4.1400    4.1500
    4.1600    4.1700    4.1800    4.1900    4.2000    4.2100    4.2200    4.2300
    4.2400    4.2500    4.2600    4.2700    4.2800    4.2900    4.3000    4.3100
    4.3200    4.3300    4.3400    4.3500    4.3600    4.3700    4.3800    4.3900
    4.4000    4.4100    4.4200    4.4300    4.4400    4.4500    4.4600    4.4700
    4.4800    4.4900    4.5000    4.5100    4.5200    4.5300    4.5400    4.5500
    4.5600    4.5700    4.5800    4.5900    4.6000    4.6100    4.6200    4.6300
    4.6400    4.6500    4.6600    4.6700    4.6800    4.6900    4.7000    4.7100
    4.7200    4.7300    4.7400    4.7500    4.7600    4.7700    4.7800    4.7900
    4.8000    4.8100    4.8200    4.8300    4.8400    4.8500    4.8600    4.8700
    4.8800    4.8900    4.9000    4.9100    4.9200    4.9300    4.9400    4.9500
    4.9600    4.9700    4.9800    4.9900    5.0000    5.0100    5.0200    5.0300
    5.0400    5.0500    5.0600    5.0700    5.0800    5.0900    5.1000    5.1100
    5.1200    5.1300    5.1400    5.1500    5.1600    5.1700    5.1800    5.1900
    5.2000    5.2100    5.2200    5.2300    5.2400    5.2500    5.2600    5.2700
    5.2800    5.2900    5.3000    5.3100    5.3200    5.3300    5.3400    5.3500
    5.3600    5.3700    5.3800    5.3900    5.4000    5.4100    5.4200    5.4300
    5.4400    5.4500    5.4600    5.4700    5.4800    5.4900    5.5000    5.5100
    5.5200    5.5300    5.5400    5.5500    5.5600    5.5700    5.5800    5.5900
    5.6000    5.6100    5.6200    5.6300    5.6400    5.6500    5.6600    5.6700
    5.6800    5.6900    5.7000    5.7100    5.7200    5.7300    5.7400    5.7500
    5.7600    5.7700    5.7800    5.7900    5.8000    5.8100    5.8200    5.8300
    5.8400    5.8500    5.8600    5.8700    5.8800    5.8900    5.9000    5.9100
    5.9200    5.9300    5.9400    5.9500    5.9600    5.9700    5.9800    5.9900
    6.0000    6.0100
   </PP_R>
   <PP_RAB type="real"  size=" 602" columns="8">
    0.0100    0.0100    0.0100    0.0100    0.0100    0.0100    0.0100    0.0100
    0.0100    0.0100    0.0100    0.0100    0.0100    0.0100    0.0100    0.0100
    0.0100    0.0100    0.0100    0.0100    0.0100    0.0100    0.0100    0.0100
    0.0100    0.0100    0.0100    0.0100    0.0100    0.0100    0.0100    0.0100
    0.0100    0.0100    0.0100    0.0100    0.0100    0.0100    0.0100    0.0100
    0.0100    0.0100    0.0100    0.0100    0.0100    0.0100    0.0100    0.0100
    0.0100    0.0100    0.0100    0.0100    0.0100    0.0100    0.0100    0.0100
    0.0100    0.0100    0.0100    0.0100    0.0100    0.0100    0.0100    0.0100
    0.0100    0.0100    0.0100    0.0100    0.0100    0.0100    0.0100    0.0100
    0.0100    0.0100    0.0100    0.0100    0.0100    0.0100    0.0100    0.0100
    0.0100    0.0100    0.0100    0.0100    0.0100    0.0100    0.0100    0.0100
    0.0100    0.0100    0.0100    0.0100    0.0100    0.0100    0.0100    0.0100
    0.0100    0.0100    0.0100    0.0100    0.0100    0.0100    0.0100    0.0100
    0.0100    0.0100    0.0100    0.0100    0.0100    0.0100    0.0100    0.0100
    0.0100    0.0100    0.0100    0.0100    0.0100    0.0100    0.0100    0.0100
    0.0100    0.0100    0.0100    0.0100    0.0100    0.0100    0.0100    0.0100
    0.0100    0.0100    0.0100    0.0100    0.0100    0.0100    0.0100    0.0100
    0.0100    0.0100    0.0100    0.0100    0.0100    0.0100    0.0100    0.0100
    0.0100    0.0100    0.0100    0.0100    0.0100    0.0100    0.0100    0.0100
    0.0100    0.0100    0.0100    0.0100    0.0100    0.0100    0.0100    0.0100
    0.0100    0.0100    0.0100    0.0100    0.0100    0.0100    0.0100    0.0100
    0.0100    0.0100    0.0100    0.0100    0.0100    0.0100    0.0100    0.0100
    0.0100    0.0100    0.0100    0.0100    0.0100    0.0100    0.0100    0.0100
    0.0100    0.0100    0.0100    0.0100    0.0100    0.0100    0.0100    0.0100
    0.0100    0.0100    0.0100    0.0100    0.0100    0.0100    0.0100    0.0100
    0.0100    0.0100    0.0100    0.0100    0.0100    0.0100    0.0100    0.0100
    0.0100    0.0100    0.0100    0.0100    0.0100    0.0100    0.0100    0.0100
    0.0100    0.0100    0.0100    0.0100    0.0100    0.0100    0.0100    0.0100
    0.0100    0.0100    0.0100    0.0100    0.0100    0.0100    0.0100    0.0100
    0.0100    0.0100    0.0100    0.0100    0.0100    0.0100    0.0100    0.0100
    0.0100    0.0100    0.0100    0.0100    0.0100    0.0100    0.0100    0.0100
    0.0100    0.0100    0.0100    0.0100    0.0100    0.0100    0.0100    0.0100
    0.0100    0.0100    0.0100    0.0100    0.0100    0.0100    0.0100    0.0100
    0.0100    0.0100    0.0100    0.0100    0.0100    0.0100    0.0100    0.0100
    0.0100    0.0100    0.0100    0.0100    0.0100    0.0100    0.0100    0.0100
    0.0100    0.0100    0.0100    0.0100    0.0100    0.0100    0.0100    0.0100
    0.0100    0.0100    0.0100    0.0100    0.0100    0.0100    0.0100    0.0100
    0.0100    0.0100    0.0100    0.0100    0.0100    0.0100    0.0100    0.0100
    0.0100    0.0100    0.0100    0.0100    0.0100    0.0100    0.0100    0.0100
    0.0100    0.0100    0.0100    0.0100    0.0100    0.0100    0.0100    0.0100
    0.0100    0.0100    0.0100    0.0100    0.0100    0.0100    0.0100    0.0100
    0.0100    0.0100    0.0100    0.0100    0.0100    0.0100    0.0100    0.0100
    0.0100    0.0100    0.0100    0.0100    0.0100    0.0100    0.0100    0.0100
    0.0100    0.0100    0.0100    0.0100    0.0100    0.0100    0.0100    0.0100
    0.0100    0.0100    0.0100    0.0100    0.0100    0.0100    0.0100    0.0100
    0.0100    0.0100    0.0100    0.0100    0.0100    0.0100    0.0100    0.0100
    0.0100    0.0100    0.0100    0.0100    0.0100    0.0100    0.0100    0.0100
    0.0100    0.0100    0.0100    0.0100    0.0100    0.0100    0.0100    0.0100
    0.0100    0.0100    0.0100    0.0100    0.0100    0.0100    0.0100    0.0100
    0.0100    0.0100    0.0100    0.0100    0.0100    0.0100    0.0100    0.0100
    0.0100    0.0100    0.0100    0.0100    0.0100    0.0100    0.0100    0.0100
    0.0100    0.0100    0.0100    0.0100    0.0100    0.0100    0.0100    0.0100
    0.0100    0.0100    0.0100    0.0100    0.0100    0.0100    0.0100    0.0100
    0.0100    0.0100    0.0100    0.0100    0.0100    0.0100    0.0100    0.0100
    0.0100    0.0100    0.0100    0.0100    0.0100    0.0100    0.0100    0.0100
    0.0100    0.0100    0.0100    0.0100    0.0100    0.0100    0.0100    0.0100
    0.0100    0.0100    0.0100    0.0100    0.0100    0.0100    0.0100    0.0100
    0.0100    0.0100    0.0100    0.0100    0.0100    0.0100    0.0100    0.0100
    0.0100    0.0100    0.0100    0.0100    0.0100    0.0100    0.0100    0.0100
    0.0100    0.0100    0.0100    0.0100    0.0100    0.0100    0.0100    0.0100
    0.0100    0.0100    0.0100    0.0100    0.0100    0.0100    0.0100    0.0100
    0.0100    0.0100    0.0100    0.0100    0.0100    0.0100    0.0100    0.0100
    0.0100    0.0100    0.0100    0.0100    0.0100    0.0100    0.0100    0.0100
    0.0100    0.0100    0.0100    0.0100    0.0100    0.0100    0.0100    0.0100
    0.0100    0.0100    0.0100    0.0100    0.0100    0.0100    0.0100    0.0100
    0.0100    0.0100    0.0100    0.0100    0.0100    0.0100    0.0100    0.0100
    0.0100    0.0100    0.0100    0.0100    0.0100    0.0100    0.0100    0.0100
    0.0100    0.0100    0.0100    0.0100    0.0100    0.0100    0.0100    0.0100
    0.0100    0.0100    0.0100    0.0100    0.0100    0.0100    0.0100    0.0100
    0.0100    0.0100    0.0100    0.0100    0.0100    0.0100    0.0100    0.0100
    0.0100    0.0100    0.0100    0.0100    0.0100    0.0100    0.0100    0.0100
    0.0100    0.0100    0.0100    0.0100    0.0100    0.0100    0.0100    0.0100
    0.0100    0.0100    0.0100    0.0100    0.0100    0.0100    0.0100    0.0100
    0.0100    0.0100    0.0100    0.0100    0.0100    0.0100    0.0100    0.0100
    0.0100    0.0100    0.0100    0.0100    0.0100    0.0100    0.0100    0.0100
    0.0100    0.0100
   </PP_RAB>
 </PP_MESH>
  <PP_LOCAL type="real"  size=" 602" columns="4">
   -1.0965070742E+01   -1.0980543268E+01   -1.1033078248E+01   -1.1111825682E+01
   -1.1205935568E+01   -1.1303983645E+01   -1.1396038664E+01   -1.1474902592E+01
   -1.1536462429E+01   -1.1579373273E+01   -1.1604384319E+01   -1.1613576679E+01
   -1.1609685809E+01   -1.1595588277E+01   -1.1573966127E+01   -1.1547124745E+01
   -1.1516925009E+01   -1.1484790263E+01   -1.1451754909E+01   -1.1418530919E+01
   -1.1385576694E+01   -1.1353160090E+01   -1.1321411445E+01   -1.1290366040E+01
   -1.1259996643E+01   -1.1230237638E+01   -1.1201002340E+01   -1.1172195118E+01
   -1.1143719563E+01   -1.1115483824E+01   -1.1087403868E+01   -1.1059405329E+01
   -1.1031424354E+01   -1.1003407769E+01   -1.0975312810E+01   -1.0947106593E+01
   -1.0918765342E+01   -1.0890273580E+01   -1.0861623244E+01   -1.0832812764E+01
   -1.0803846184E+01   -1.0774732288E+01   -1.0745483782E+01   -1.0716116502E+01
   -1.0686648692E+01   -1.0657100334E+01   -1.0627492545E+01   -1.0597847030E+01
   -1.0568185605E+01   -1.0538529774E+01   -1.0508900391E+01   -1.0479317340E+01
   -1.0449799306E+01   -1.0420363606E+01   -1.0391025992E+01   -1.0361800617E+01
   -1.0332699917E+01   -1.0303734618E+01   -1.0274913702E+01   -1.0246244460E+01
   -1.0217732479E+01   -1.0189381776E+01   -1.0161194750E+01   -1.0133172350E+01
   -1.0105314119E+01   -1.0077618238E+01   -1.0050081655E+01   -1.0022700172E+01
   -9.9954684632E+00   -9.9683802108E+00   -9.9414281708E+00   -9.9146042510E+00
   -9.8878995676E+00   -9.8613045272E+00   -9.8348089051E+00   -9.8084019092E+00
   -9.7820722481E+00   -9.7558081988E+00   -9.7295976731E+00   -9.7034282856E+00
   -9.6772874140E+00   -9.6511622710E+00   -9.6250399672E+00   -9.5989075749E+00
   -9.5727521920E+00   -9.5465610051E+00   -9.5203213504E+00   -9.4940207739E+00
   -9.4676470893E+00   -9.4411884339E+00   -9.4146333204E+00   -9.3879706811E+00
   -9.3611899331E+00   -9.3342810038E+00   -9.3072343748E+00   -9.2800411158E+00
   -9.2526929142E+00   -9.2251820995E+00   -9.1975016630E+00   -9.1696452685E+00
   -9.1416072421E+00   -9.1133826629E+00   -9.0849672765E+00   -9.0563575184E+00
   -9.0275505049E+00   -8.9985439986E+00   -8.9693364339E+00   -8.9399269266E+00
   -8.9103151778E+00   -8.8805014777E+00   -8.8504866346E+00   -8.8202720868E+00
   -8.7898597632E+00   -8.7592520559E+00   -8.7284517630E+00   -8.6974621860E+00
   -8.6662870045E+00   -8.6349302332E+00   -8.6033961748E+00   -8.5716895463E+00
   -8.5398152792E+00   -8.5077785204E+00   -8.4755846959E+00   -8.4432394279E+00
   -8.4107484763E+00   -8.3781177786E+00   -8.3453534283E+00   -8.3124615971E+00
   -8.2794485720E+00   -8.2463207389E+00   -8.2130845231E+00   -8.1797464234E+00
   -8.1463129815E+00   -8.1127907569E+00   -8.0791863455E+00   -8.0455063449E+00
   -8.0117573618E+00   -7.9779459936E+00   -7.9440788289E+00   -7.9101624422E+00
   -7.8762033691E+00   -7.8422081446E+00   -7.8081832343E+00   -7.7741350888E+00
   -7.7400701127E+00   -7.7059946382E+00   -7.6719149997E+00   -7.6378374012E+00
   -7.6037680579E+00   -7.5697130688E+00   -7.5356784898E+00   -7.5016703144E+00
   -7.4676944158E+00   -7.4337566721E+00   -7.3998627588E+00   -7.3660184149E+00
   -7.3322291258E+00   -7.2985004359E+00   -7.2648376641E+00   -7.2312461307E+00
   -7.1977309759E+00   -7.1642972801E+00   -7.1309499908E+00   -7.0976939361E+00
   -7.0645338547E+00   -7.0314743125E+00   -6.9985198227E+00   -6.9656746822E+00
   -6.9329431608E+00   -6.9003292834E+00   -6.8678370575E+00   -6.8354702368E+00
   -6.8032325473E+00   -6.7711274764E+00   -6.7391584493E+00   -6.7073286958E+00
   -6.6756413212E+00   -6.6440993108E+00   -6.6127054317E+00   -6.5814624406E+00
   -6.5503727519E+00   -6.5194389095E+00   -6.4886629656E+00   -6.4580472666E+00
   -6.4275935306E+00   -6.3973038279E+00   -6.3671796581E+00   -6.3372227368E+00
   -6.3074344188E+00   -6.2778160445E+00   -6.2483688510E+00   -6.2190938086E+00
   -6.1899920530E+00   -6.1610642330E+00   -6.1323113064E+00   -6.1037337499E+00
   -6.0753322113E+00   -6.0471071316E+00   -6.0190588328E+00   -5.9911877264E+00
   -5.9634938778E+00   -5.9359775804E+00   -5.9086388015E+00   -5.8814775974E+00
   -5.8544939528E+00   -5.8276876980E+00   -5.8010588144E+00   -5.7746070099E+00
   -5.7483321195E+00   -5.7222338873E+00   -5.6963119966E+00   -5.6705662027E+00
   -5.6449961186E+00   -5.6196014234E+00   -5.5943817551E+00   -5.5693367210E+00
   -5.5444659635E+00   -5.5197690695E+00   -5.4952456473E+00   -5.4708952996E+00
   -5.4467176166E+00   -5.4227121973E+00   -5.3988786324E+00   -5.3752165142E+00
   -5.3517254378E+00   -5.3284049859E+00   -5.3052547532E+00   -5.2822743213E+00
   -5.2594632561E+00   -5.2368211571E+00   -5.2143475588E+00   -5.1920420004E+00
   -5.1699040789E+00   -5.1479332316E+00   -5.1261289796E+00   -5.1044908399E+00
   -5.0830181494E+00   -5.0617103897E+00   -5.0405669285E+00   -5.0195869719E+00
   -4.9987699423E+00   -4.9781149789E+00   -4.9576211230E+00   -4.9372877079E+00
   -4.9171135658E+00   -4.8970975321E+00   -4.8772387929E+00   -4.8575358312E+00
   -4.8379872504E+00   -4.8185918482E+00   -4.7993480616E+00   -4.7802544183E+00
   -4.7613094341E+00   -4.7425117011E+00   -4.7238597900E+00   -4.7053522504E+00
   -4.6869876792E+00   -4.6687646609E+00   -4.6506817413E+00   -4.6327375573E+00
   -4.6149307265E+00   -4.5972598550E+00   -4.5797235612E+00   -4.5623204621E+00
   -4.5450492176E+00   -4.5279083961E+00   -4.5108965461E+00   -4.4940122496E+00
   -4.4772540744E+00   -4.4606205729E+00   -4.4441102675E+00   -4.4277216907E+00
   -4.4114535734E+00   -4.3953045454E+00   -4.3792731005E+00   -4.3633581468E+00
   -4.3475584307E+00   -4.3318726491E+00   -4.3162996119E+00   -4.3008381170E+00
   -4.2854868899E+00   -4.2702447374E+00   -4.2551105766E+00   -4.2400832483E+00
   -4.2251615399E+00   -4.2103444343E+00   -4.1956308343E+00   -4.1810195729E+00
   -4.1665096309E+00   -4.1520999919E+00   -4.1377895832E+00   -4.1235773336E+00
   -4.1094623142E+00   -4.0954435290E+00   -4.0815199091E+00   -4.0676905502E+00
   -4.0539545218E+00   -4.0403108482E+00   -4.0267585555E+00   -4.0132968026E+00
   -3.9999246851E+00   -3.9866412350E+00   -3.9734456168E+00   -3.9603369930E+00
   -3.9473144906E+00   -3.9343771900E+00   -3.9215243423E+00   -3.9087551258E+00
   -3.8960686783E+00   -3.8834641923E+00   -3.8709409287E+00   -3.8584981043E+00
   -3.8461348725E+00   -3.8338505239E+00   -3.8216443298E+00   -3.8095155394E+00
   -3.7974633391E+00   -3.7854870898E+00   -3.7735860799E+00   -3.7617595760E+00
   -3.7500068408E+00   -3.7383272518E+00   -3.7267201308E+00   -3.7151847645E+00
   -3.7037204809E+00   -3.6923266754E+00   -3.6810027011E+00   -3.6697478683E+00
   -3.6585615585E+00   -3.6474431869E+00   -3.6363921370E+00   -3.6254077443E+00
   -3.6144894337E+00   -3.6036366423E+00   -3.5928487823E+00   -3.5821252167E+00
   -3.5714654037E+00   -3.5608688045E+00   -3.5503348588E+00   -3.5398629589E+00
   -3.5294525868E+00   -3.5191032303E+00   -3.5088143550E+00   -3.4985853843E+00
   -3.4884158156E+00   -3.4783051649E+00   -3.4682529227E+00   -3.4582585452E+00
   -3.4483215368E+00   -3.4384414439E+00   -3.4286177806E+00   -3.4188500376E+00
   -3.4091377190E+00   -3.3994804026E+00   -3.3898776253E+00   -3.3803289139E+00
   -3.3708337657E+00   -3.3613917908E+00   -3.3520025477E+00   -3.3426655944E+00
   -3.3333804355E+00   -3.3241466941E+00   -3.3149639556E+00   -3.3058317987E+00
   -3.2967497669E+00   -3.2877174600E+00   -3.2787345013E+00   -3.2698004891E+00
   -3.2609150084E+00   -3.2520776295E+00   -3.2432880141E+00   -3.2345457792E+00
   -3.2258505416E+00   -3.2172018724E+00   -3.2085994371E+00   -3.2000428814E+00
   -3.1915318399E+00   -3.1830659278E+00   -3.1746447680E+00   -3.1662680486E+00
   -3.1579354213E+00   -3.1496465374E+00   -3.1414010041E+00   -3.1331985205E+00
   -3.1250387642E+00   -3.1169214027E+00   -3.1088460902E+00   -3.1008124719E+00
   -3.0928202704E+00   -3.0848691688E+00   -3.0769588502E+00   -3.0690889652E+00
   -3.0612592181E+00   -3.0534693267E+00   -3.0457189887E+00   -3.0380079019E+00
   -3.0303357174E+00   -3.0227021890E+00   -3.0151070319E+00   -3.0075499578E+00
   -3.0000306687E+00   -2.9925488489E+00   -2.9851042632E+00   -2.9776966366E+00
   -2.9703256943E+00   -2.9629911418E+00   -2.9556926993E+00   -2.9484301341E+00
   -2.9412031839E+00   -2.9340115866E+00   -2.9268550542E+00   -2.9197333349E+00
   -2.9126462007E+00   -2.9055934015E+00   -2.8985746875E+00   -2.8915897793E+00
   -2.8846384459E+00   -2.8777204664E+00   -2.8708356023E+00   -2.8639836154E+00
   -2.8571642374E+00   -2.8503772510E+00   -2.8436224447E+00   -2.8368995912E+00
   -2.8302084632E+00   -2.8235488057E+00   -2.8169204086E+00   -2.8103230720E+00
   -2.8037565792E+00   -2.7972207134E+00   -2.7907152347E+00   -2.7842399343E+00
   -2.7777946258E+00   -2.7713791027E+00   -2.7649931582E+00   -2.7586365696E+00
   -2.7523091233E+00   -2.7460106487E+00   -2.7397409488E+00   -2.7334998264E+00
   -2.7272870776E+00   -2.7211024793E+00   -2.7149458778E+00   -2.7088170853E+00
   -2.7027159137E+00   -2.6966421753E+00   -2.6905956467E+00   -2.6845761781E+00
   -2.6785835953E+00   -2.6726177190E+00   -2.6666783701E+00   -2.6607653479E+00
   -2.6548784808E+00   -2.6490176164E+00   -2.6431825837E+00   -2.6373732119E+00
   -2.6315893250E+00   -2.6258307253E+00   -2.6200972830E+00   -2.6143888352E+00
   -2.6087052190E+00   -2.6030462716E+00   -2.5974118050E+00   -2.5918016735E+00
   -2.5862157346E+00   -2.5806538332E+00   -2.5751158137E+00   -2.5696015162E+00
   -2.5641107594E+00   -2.5586434268E+00   -2.5531993703E+00   -2.5477784421E+00
   -2.5423804939E+00   -2.5370053586E+00   -2.5316528938E+00   -2.5263229753E+00
   -2.5210154619E+00   -2.5157302127E+00   -2.5104670863E+00   -2.5052259116E+00
   -2.5000065780E+00   -2.4948089559E+00   -2.4896329108E+00   -2.4844783080E+00
   -2.4793450089E+00   -2.4742328537E+00   -2.4691417440E+00   -2.4640715516E+00
   -2.4590221481E+00   -2.4539934052E+00   -2.4489851840E+00   -2.4439973457E+00
   -2.4390297907E+00   -2.4340823969E+00   -2.4291550419E+00   -2.4242476035E+00
   -2.4193599447E+00   -2.4144919416E+00   -2.4096434961E+00   -2.4048144917E+00
   -2.4000048116E+00   -2.3952143392E+00   -2.3904429421E+00   -2.3856905057E+00
   -2.3809569352E+00   -2.3762421194E+00   -2.3715459471E+00   -2.3668683071E+00
   -2.3622090733E+00   -2.3575681354E+00   -2.3529454037E+00   -2.3483407723E+00
   -2.3437541352E+00   -2.3391853864E+00   -2.3346344081E+00   -2.3301010891E+00
   -2.3255853471E+00   -2.3210870810E+00   -2.3166061899E+00   -2.3121425726E+00
   -2.3076961215E+00   -2.3032667199E+00   -2.2988542946E+00   -2.2944587494E+00
   -2.2900799877E+00   -2.2857179134E+00   -2.2813724300E+00   -2.2770434129E+00
   -2.2727307978E+00   -2.2684344935E+00   -2.2641544080E+00   -2.2598904495E+00
   -2.2556425262E+00   -2.2514105271E+00   -2.2471943727E+00   -2.2429939850E+00
   -2.2388092763E+00   -2.2346401592E+00   -2.2304865459E+00   -2.2263483412E+00
   -2.2222254463E+00   -2.2181177978E+00   -2.2140253122E+00   -2.2099479060E+00
   -2.2058854957E+00   -2.2018379977E+00   -2.1978053066E+00   -2.1937873590E+00
   -2.1897840803E+00   -2.1857953909E+00   -2.1818212113E+00   -2.1778614618E+00
   -2.1739160554E+00   -2.1699849018E+00   -2.1660679442E+00   -2.1621651066E+00
   -2.1582763133E+00   -2.1544014883E+00   -2.1505405558E+00   -2.1466934228E+00
   -2.1428600237E+00   -2.1390402952E+00   -2.1352341649E+00   -2.1314415605E+00
   -2.1276624095E+00   -2.1238966398E+00   -2.1201441549E+00   -2.1164049084E+00
   -2.1126788326E+00   -2.1089658585E+00   -2.1052659170E+00   -2.1015789392E+00
   -2.0979048518E+00   -2.0942435703E+00   -2.0905950494E+00   -2.0869592231E+00
   -2.0833360258E+00   -2.0797253916E+00   -2.0761272549E+00   -2.0725415423E+00
   -2.0689681799E+00   -2.0654071215E+00   -2.0618583046E+00   -2.0583216664E+00
   -2.0547971441E+00   -2.0512846752E+00   -2.0477841882E+00   -2.0442956151E+00
   -2.0408189113E+00   -2.0373540168E+00   -2.0339008718E+00   -2.0304594167E+00
   -2.0270295917E+00   -2.0236113291E+00   -2.0202045626E+00   -2.0168092506E+00
   -2.0134253359E+00   -2.0100527617E+00   -2.0066914709E+00   -2.0033414065E+00
   -2.0000025065E+00   -1.9966747021E+00
  </PP_LOCAL>
 <PP_NONLOCAL>
   <PP_BETA.1
       type="real"
       size=" 602"
       columns="4"
       index="1"
       angular_momentum="0"
       cutoff_radius_index=" 274"
       cutoff_radius="    2.7300000000E+00" >
    0.0000000000E+00   -3.4360680377E-02   -6.8694494764E-02   -1.0297460482E-01
   -1.3717422747E-01   -1.7126666239E-01   -2.0522531942E-01   -2.3902374579E-01
   -2.7263565307E-01   -3.0603494393E-01   -3.3919573859E-01   -3.7209240088E-01
   -4.0469956399E-01   -4.3699215575E-01   -4.6894542348E-01   -5.0053495833E-01
   -5.3173671918E-01   -5.6252705584E-01   -5.9288273181E-01   -6.2278094634E-01
   -6.5219935591E-01   -6.8111609498E-01   -7.0950979612E-01   -7.3735960942E-01
   -7.6464522116E-01   -7.9134687171E-01   -8.1744537281E-01   -8.4292212384E-01
   -8.6775912760E-01   -8.9193900512E-01   -9.1544500971E-01   -9.3826104022E-01
   -9.6037165366E-01   -9.8176207668E-01   -1.0024182165E+00   -1.0223266713E+00
   -1.0414747391E+00   -1.0598504264E+00   -1.0774424565E+00   -1.0942402756E+00
   -1.1102340597E+00   -1.1254147198E+00   -1.1397739071E+00   -1.1533040166E+00
   -1.1659981908E+00   -1.1778503222E+00   -1.1888550557E+00   -1.1990077895E+00
   -1.2083046764E+00   -1.2167426235E+00   -1.2243192920E+00   -1.2310330962E+00
   -1.2368832020E+00   -1.2418695243E+00   -1.2459927252E+00   -1.2492542097E+00
   -1.2516561233E+00   -1.2532013468E+00   -1.2538934922E+00   -1.2537368976E+00
   -1.2527366214E+00   -1.2508984369E+00   -1.2482288248E+00   -1.2447349677E+00
   -1.2404247423E+00   -1.2353067109E+00   -1.2293901145E+00   -1.2226848651E+00
   -1.2152015339E+00   -1.2069513443E+00   -1.1979461620E+00   -1.1881984855E+00
   -1.1777214338E+00   -1.1665287358E+00   -1.1546347203E+00   -1.1420543033E+00
   -1.1288029763E+00   -1.1148967931E+00   -1.1003523568E+00   -1.0851868078E+00
   -1.0694178055E+00   -1.0530635176E+00   -1.0361426041E+00   -1.0186742012E+00
   -1.0006779056E+00   -9.8217375740E-01   -9.6318222350E-01   -9.4372417927E-01
   -9.2382089042E-01   -9.0349399407E-01   -8.8276547963E-01   -8.6165767130E-01
   -8.4019319836E-01   -8.1839498235E-01   -7.9628621252E-01   -7.7389032321E-01